# vtk DataFile Version 5.1
vtk output
ASCII
DATASET STRUCTURED_POINTS
DIMENSIONS 16 16 1
SPACING 1 1 1
ORIGIN 0 0 0
POINT_DATA 256
SCALARS scalars double
LOOKUP_TABLE default
0 0 0 0 0 0 0 0 0 
0 0 0 0 0 0 0 0 -0.0021647607123 
-0.0022461014628 -0.0024191896136 -0.0027933228952 -0.0033067813328 -0.0038232929753 -0.0041987083994 -0.0043263528571 -0.0041637484481 -0.003741116714 
-0.0031515637414 -0.0025228506088 -0.0019700410064 -0.0015258106566 0 0 0.0008972037346 0.0085312737961 0.019178850574 
0.031238240238 0.042994475458 0.052803854924 0.059301344887 0.061585942181 0.059347863974 0.052914183346 0.043204837364 0.031607121909 
0.019792003367 0.0095079865915 0 0 0.0059432168605 0.025226769799 0.05216535419 0.082952439268 0.1132087793 
0.13860159549 0.15547706139 0.16140256281 0.15553137821 0.13873166307 0.11345937398 0.083395453836 0.052905218484 0.026406758008 
0 0 0.012096728646 0.045183899861 0.091395064982 0.14433257849 0.19647340861 0.24030414541 0.26946001857 
0.2796927439 0.26951836215 0.24044556944 0.19674960073 0.1448265935 0.092227838084 0.046522471302 0 0 
0.018360449867 0.065293520863 0.13081583168 0.20594143008 0.28000272539 0.34230196581 0.38375864392 0.39830485545 0.38381765148 
0.34244720397 0.28029120764 0.20646518981 0.13170998749 0.066747418602 0 0 0.023751992612 0.082459486716 
0.16438723785 0.25835514019 0.35102855188 0.42900782663 0.4809074866 0.4991148858 0.48096441055 0.42915052661 0.35131764174 
0.25888903339 0.16531178828 0.083982066032 0 0 0.027445254205 0.09406459468 0.18699709398 0.29359521795 
0.39874008681 0.48722402497 0.54611880564 0.56677767009 0.54617156915 0.48735909267 0.39901970013 0.29412095728 0.18792070117 
0.095604236711 0 0 0.02889204967 0.098365829985 0.19523779667 0.30634200626 0.41592863218 0.50815014214 
0.56953199464 0.59106101303 0.56957916382 0.50827368774 0.41619021792 0.30684262102 0.19612906417 0.099867216825 0 
0 0.027903401781 0.094758106739 0.18792467376 0.29474545377 0.40008713073 0.48872578581 0.54771826806 0.56840714476 
0.5477589928 0.48883505062 0.40032370334 0.29520569325 0.1887534792 0.096165600407 0 0 0.024676868469 
0.083865577216 0.16627715458 0.26070987519 0.35379744401 0.43210432137 0.48421199999 0.50248426122 0.48424595221 0.43219763058 
0.3540037385 0.26111694737 0.16701669245 0.085127864236 0 0 0.019764678345 0.067445583211 0.13373451091 
0.20960918444 0.28434678065 0.34718629275 0.38898894266 0.40364539748 0.38901625751 0.34726302724 0.28451947111 0.20995364494 
0.13436362038 0.068520753555 0 0 0.013986193197 0.048118265732 0.09543295039 0.14947547881 0.20263216897 
0.24728495102 0.27697275286 0.28737921533 0.27699395769 0.2473454874 0.20277001903 0.14975198872 0.095938209746 0.048978488691 
0 0 0.0082960002671 0.028960192855 0.057421335091 0.089783535241 0.12152047473 0.14812929329 0.16580046994 
0.17199219493 0.16581637324 0.14817483122 0.12162423131 0.089991101756 0.057798238938 0.02959498995 0 0 
0.0036242995682 0.013018623575 0.025730623208 0.040014474727 0.053914731448 0.065512221576 0.073192375796 0.075880915987 0.07320389131 
0.065544423099 0.053986566435 0.04015571656 0.025982890857 0.013435164234 0 0 0 0 
0 0 0 0 0 0 0 0 0 
0 0 0 0 
