# vtk DataFile Version 5.1
vtk output
ASCII
DATASET STRUCTURED_POINTS
DIMENSIONS 16 16 1
SPACING 1 1 1
ORIGIN 0 0 0
POINT_DATA 256
SCALARS scalars double
LOOKUP_TABLE default
0 0 0 0 0 0 0 0 0 
0 0 0 0 0 0 0 0 0.0036107529233 
0.0047950691664 0.005459098032 0.0056911925578 0.0056303063001 0.0054250896713 0.0052029034862 0.0050472742663 0.004984091952 0.004977294934 
0.0049345501599 0.0047230526664 0.0041955613238 0.0032277543132 0 0 0.0065711666511 0.0094542891719 0.01191768911 
0.01393366567 0.015487866353 0.016567842243 0.017160395868 0.017252777916 0.016834681583 0.015899446358 0.014444153907 0.012469569719 
0.0099823397157 0.0070037186202 0 0 0.010146664201 0.015257972982 0.020206495656 0.02478023569 0.028711940177 
0.031720524326 0.03355793976 0.034051073895 0.033130479264 0.030840729914 0.027330751827 0.022826254673 0.017590050651 0.011879266795 
0 0 0.013988671059 0.021583177231 0.02936015507 0.036887875252 0.043592988612 0.048867650643 0.052177701261 
0.053154738943 0.051657681342 0.047794271407 0.041899254557 0.034472718872 0.026088385937 0.017286552472 0 0 
0.017649696426 0.027654652888 0.038205740667 0.048651216491 0.05810895307 0.065640588371 0.07042225779 0.071887802303 0.069823739977 
0.064402071631 0.056146001636 0.045833431845 0.034352059183 0.022526596313 0 0 0.020667358643 0.032680188515 
0.045555487675 0.058455151816 0.070234409179 0.079673303101 0.085700970381 0.087582614646 0.085043057445 0.078309186489 0.068064976273 
0.055325104838 0.041244459678 0.02688906818 0 0 0.022643631697 0.035981201293 0.050396222401 0.064926228906 
0.078250651897 0.088960815747 0.095820220285 0.09798094878 0.0951264366 0.087520392696 0.075954603721 0.061602432216 0.045797641905 
0.029767485856 0 0 0.023310211782 0.037101577272 0.052048612705 0.067145279569 0.08100899001 0.092164284266 
0.099315944619 0.10157590959 0.098612902944 0.090703658462 0.07867813205 0.063765801665 0.047363541227 0.030755247097 0 
0 0.022571504668 0.035879682379 0.050273075164 0.064789357501 0.078106948349 0.088815490304 0.095676711059 0.097841353149 
0.094992287015 0.087393526992 0.075837860863 0.061499941932 0.045714571962 0.029709258699 0 0 0.020519271429 
0.032473198133 0.045306687467 0.058181602904 0.069950513092 0.079389333191 0.085422956475 0.087313428641 0.084784286131 0.078063221487 
0.067836707892 0.055122683171 0.041078788329 0.026772022302 0 0 0.017416645855 0.027332951495 0.037825471407 
0.048241480294 0.05769304031 0.065233443308 0.070030510258 0.071512025604 0.069462152912 0.064054642947 0.055817838685 0.045536450224 
0.034104253936 0.022348789752 0 0 0.01365323026 0.021128976915 0.028837266859 0.036342809434 0.043060371305 
0.048366217542 0.051710859273 0.052714972553 0.051233422085 0.047377465568 0.041491740586 0.034089670579 0.025757523811 0.017042641628 
0 0 0.0096764028024 0.014638344572 0.019520311213 0.024100813052 0.028089235357 0.031175194632 0.033083244112 
0.033621149506 0.032712652392 0.030408999263 0.026877395024 0.022368661048 0.017170416692 0.011555810636 0 0 
0.0059058424528 0.0086085056761 0.011029899693 0.013119918865 0.014819588137 0.016063747585 0.016791361164 0.016956913099 0.016538794359 
0.015542427758 0.013997538951 0.011950663101 0.0094558536978 0.0065689021201 0 0 0 0 
0 0 0 0 0 0 0 0 0 
0 0 0 0 
