# vtk DataFile Version 5.1
vtk output
ASCII
DATASET STRUCTURED_POINTS
DIMENSIONS 16 16 1
SPACING 1 1 1
ORIGIN 0 0 0
POINT_DATA 256
SCALARS scalars double
LOOKUP_TABLE default
0 0 0 0 0 0 0 0 0 
0 0 0 0 0 0 0 0 -0.0057847227158 
-0.0041365457353 -0.00073787461404 0.0035815567686 0.0080264669527 0.011872579604 0.014533892999 0.015630794315 0.015038675213 0.012904825242 
0.0096291211377 0.0058116015369 0.0021772566044 -0.00050484856539 0 0 -0.0043281310327 0.010147704093 0.032512725286 
0.059122147166 0.085830436333 0.10855627303 0.12386738639 0.1294846256 0.12462134143 0.11010246953 0.088243427806 0.062507054261 
0.0369918247 0.015831067235 0 0 -0.0012441306143 0.032151202367 0.08223042542 0.14130375785 0.20038899442 
0.25054398679 0.28420815794 0.29634417273 0.28520245073 0.25258997896 0.20360146001 0.14585347351 0.088338386444 0.040072312052 
0 0 0.0026845114046 0.058293182616 0.14080645962 0.23782267183 0.33472423312 0.41690198933 0.47198001304 
0.49170260934 0.47319607656 0.41941292467 0.33869088312 0.24349392402 0.14852697118 0.068510774573 0 0 
0.0067258940693 0.084510495775 0.19935677974 0.33417319875 0.46873550123 0.58279612488 0.65918747597 0.68645095392 0.6605940044 
0.58570924396 0.47336239537 0.34084286359 0.20854360331 0.09686902922 0 0 0.010221983161 0.10680657471 
0.2490379592 0.41585598121 0.58229380534 0.72333474666 0.81775819911 0.85139629938 0.81931007275 0.72655665879 0.58743268604 
0.42331020444 0.25939540395 0.12090400246 0 0 0.012643866419 0.12182167522 0.28237301147 0.47058693492 
0.65832957719 0.81739963639 0.92387004217 0.96176373185 0.92550971627 0.82080926742 0.66378280802 0.47852901814 0.29346890358 
0.13703229077 0 0 0.013650261202 0.12732512451 0.29438010802 0.4901708834 0.68544831836 0.85088945866 
0.96161382797 1.0010069393 0.96327506942 0.85434635444 0.69098366357 0.49824610772 0.30568696624 0.14286798101 0 
0 0.013129914895 0.1225470009 0.28332856131 0.47175439598 0.6596786005 0.81888685881 0.92544041337 0.96335404453 
0.92705370155 0.82224325924 0.66505085485 0.47958644502 0.29428369541 0.13758423661 0 0 0.011216418621 
0.10829461217 0.25100469801 0.41826685622 0.58508791132 0.72642233648 0.82102349142 0.85470531523 0.8225220213 0.72953660929 
0.59006298773 0.42549837906 0.26107702637 0.12204034323 0 0 0.0082712589134 0.086834272096 0.20244609839 
0.33798256777 0.47317358175 0.58772047242 0.66440921883 0.6917487222 0.6657343137 0.59046920819 0.47755017634 0.34431168666 
0.21119647416 0.098653445878 0 0 0.0048380151178 0.061556339465 0.14518452659 0.24327067718 0.3411220952 
0.42404432362 0.47958355069 0.49942955851 0.48068842603 0.42633067693 0.3447465032 0.24847589075 0.15230722019 0.071034084901 
0 0 0.0015774636334 0.036475949813 0.088113230723 0.14872329388 0.20920193907 0.26046657411 0.29482829541 
0.30716014798 0.29567950778 0.26222327894 0.21197298802 0.15267125635 0.093448900558 0.043441288726 0 0 
-0.00079997340915 0.015648072928 0.04015139313 0.068946361592 0.097686485174 0.12205880695 0.13842068516 0.14434688194 0.13899720497 
0.12324563292 0.099549849757 0.071580496399 0.043666502092 0.020141098719 0 0 0 0 
0 0 0 0 0 0 0 0 0 
0 0 0 0 
