# vtk DataFile Version 5.1
vtk output
ASCII
DATASET STRUCTURED_POINTS
DIMENSIONS 16 16 1
SPACING 1 1 1
ORIGIN 0 0 0
POINT_DATA 256
SCALARS scalars double
LOOKUP_TABLE default
0 0 0 0 0 0 0 0 0 
0 0 0 0 0 0 0 0 -0.011109007467 
-0.011456497346 -0.0094236089889 -0.0059159705946 -0.0018502804506 0.0019193346784 0.0046950019076 0.0060214735997 0.0057453436257 0.0040346519857 
0.0013541418312 -0.0016007978936 -0.0040012467457 -0.004996473749 0 0 -0.01321813889 -0.002579335377 0.016621516114 
0.040741855991 0.06562321886 0.08717078277 0.10194261662 0.10765341505 0.10351193666 0.090338114804 0.070440322173 0.047270283507 
0.024906956241 0.0074456952999 0 0 -0.014108700912 0.013235376645 0.05784993413 0.11217562719 0.16740398921 
0.21478150627 0.24691585638 0.25888477755 0.24897723854 0.21895267257 0.17377765177 0.12087896276 0.0690251693 0.027003715589 
0 0 -0.014256573548 0.032935473338 0.10745137796 0.1971737893 0.28788879728 0.36542658147 0.41780066916 
0.43702145708 0.42030803997 0.37051357357 0.29569901046 0.20791956211 0.12140768769 0.050427313611 0 0 
-0.01398572057 0.053142226263 0.15755260512 0.28259227152 0.40867452634 0.51624735972 0.588759166 0.61517234261 0.59164310176 
0.52211230096 0.4177177091 0.29511750068 0.17398049699 0.074025476545 0 0 -0.013524269228 0.07057298676 
0.20035455012 0.35532875437 0.51136584522 0.64436404438 0.73391299666 0.76639885251 0.73707967363 0.65081628377 0.52134830543 
0.36922675349 0.21871947463 0.094162839088 0 0 -0.013027128993 0.082486047457 0.22928007858 0.40429855335 
0.58037791028 0.73037870139 0.83131446672 0.86785154396 0.83464856053 0.73718081641 0.59092547374 0.41903335249 0.24884423944 
0.10777994421 0 0 -0.012582994755 0.087067104485 0.23995211714 0.42211101883 0.60531079509 0.76134135856 
0.86630832748 0.90427194082 0.86967966098 0.76822355091 0.61599344677 0.43705682512 0.25983663394 0.11284282253 0 
0 -0.012215557681 0.083690351609 0.23084894327 0.40619032395 0.58253589881 0.73273125872 0.83377717501 0.87033147415 
0.83705002115 0.73941165933 0.59290288603 0.42068817541 0.25012320442 0.10864575189 0 0 -0.011883979915 
0.073010005402 0.20353418885 0.35916921993 0.51575366443 0.6491537156 0.73893143045 0.77145445675 0.74197477961 0.65536082174 
0.52537234159 0.37258973485 0.22131477551 0.095917379441 0 0 -0.01148438614 0.056866578247 0.16242535045 
0.28849539685 0.41543806754 0.52364750033 0.59652507086 0.62300136633 0.59922196984 0.5291405279 0.42392902075 0.3002954042 
0.17796536838 0.07671253901 0 0 -0.010851259111 0.03802263973 0.11413613376 0.20531032678 0.29725247061 
0.37570839327 0.42861685698 0.44793721222 0.43087115432 0.38029180441 0.30431422096 0.21507223272 0.12688717288 0.054106231004 
0 0 -0.0097544163114 0.019770961333 0.06649386973 0.12277138022 0.17967759988 0.22832916775 0.26121721891 
0.27333935481 0.26295668659 0.2318589952 0.18509642218 0.13021737762 0.076127089365 0.031737835736 0 0 
-0.0078826329594 0.0054796777067 0.027383199326 0.054072430009 0.08121160692 0.10450501676 0.12032947225 0.12627468803 0.12150522696 
0.1068867016 0.084855580426 0.059051084035 0.033763346165 0.013278564774 0 0 0 0 
0 0 0 0 0 0 0 0 0 
0 0 0 0 
