# vtk DataFile Version 5.1
vtk output
ASCII
DATASET STRUCTURED_POINTS
DIMENSIONS 16 16 1
SPACING 1 1 1
ORIGIN 0 0 0
POINT_DATA 256
SCALARS scalars double
LOOKUP_TABLE default
0 0 0 0 0 0 0 0 0 
0 0 0 0 0 0 0 0 -0.004402157143 
-0.0026572620446 0.00091957251536 0.0054793220244 0.010180316659 0.014241771832 0.017025045976 0.018112005855 0.017360155297 0.014922442394 
0.01122775532 0.0069263961406 0.0028134151341 -0.00024707356922 0 0 -0.0026572620446 0.011544322244 0.033730516502 
0.060240003424 0.086897846427 0.10958928524 0.12485075245 0.1303780907 0.1253684812 0.11064089167 0.088515744153 0.062473050017 
0.036644098804 0.015219671683 0 0 0.00091957251536 0.033730516502 0.08336817566 0.14211349411 0.20095410412 
0.25091988436 0.28442539582 0.29641151681 0.28510959613 0.25231001517 0.20309360638 0.14506713023 0.087220270809 0.038579252427 
0 0 0.0054793220244 0.060240003424 0.14211349411 0.23864531179 0.33517711126 0.41706798594 0.47191576931 
0.49144075033 0.4727447124 0.41875320296 0.33777345968 0.24223521741 0.14680592641 0.066166409018 0 0 
0.010180316659 0.086897846427 0.20095410412 0.33517711126 0.46928735317 0.58299794596 0.65911043988 0.68613781431 0.66005679661 
0.58492339505 0.47225812679 0.3392943231 0.20635543426 0.093758956323 0 0 0.014241771832 0.10958928524 
0.25091988436 0.41706798594 0.58299794596 0.72364630703 0.81775688142 0.85112912942 0.81878791808 0.72574575984 0.58624203658 
0.42157483091 0.25685445917 0.11717100792 0 0 0.017025045976 0.12485075245 0.28442539582 0.47191576931 
0.65911043988 0.81775688142 0.9238898376 0.96149714013 0.92496817679 0.81995412035 0.66250973693 0.47664727949 0.29067380622 
0.13286747755 0 0 0.018112005855 0.1303780907 0.29641151681 0.49144075033 0.68613781431 0.85112912942 
0.96149714013 1.0005928387 0.96258222344 0.85334100035 0.68956216896 0.4962122465 0.30272235762 0.1384920097 0 
0 0.017360155297 0.1253684812 0.28510959613 0.4727447124 0.66005679661 0.81878791808 0.92496817679 0.96258222344 
0.92601830206 0.82092872915 0.66337155723 0.47736399933 0.29121914306 0.13322174856 0 0 0.014922442394 
0.11064089167 0.25231001517 0.41875320296 0.58492339505 0.72574575984 0.81995412035 0.85334100035 0.82092872915 0.72773225137 
0.58799799085 0.42303455453 0.25796481675 0.11789228744 0 0 0.01122775532 0.088515744153 0.20309360638 
0.33777345968 0.47225812679 0.58624203658 0.66250973693 0.68956216896 0.66337155723 0.58799799085 0.47497391174 0.34155018868 
0.2080705267 0.094873068042 0 0 0.0069263961406 0.062473050017 0.14506713023 0.24223521741 0.3392943231 
0.42157483091 0.47664727949 0.4962122465 0.47736399933 0.42303455453 0.34155018868 0.24536808277 0.14918596432 0.067713037958 
0 0 0.0028134151341 0.036644098804 0.087220270809 0.14680592641 0.20635543426 0.25685445917 0.29067380622 
0.30272235762 0.29121914306 0.25796481675 0.2080705267 0.14918596432 0.090345839603 0.040613379499 0 0 
-0.00024707356922 0.015219671683 0.038579252427 0.066166409018 0.093758956323 0.11717100792 0.13286747755 0.1384920097 0.13322174856 
0.11789228744 0.094873068042 0.067713037958 0.040613379499 0.017813970197 0 0 0 0 
0 0 0 0 0 0 0 0 0 
0 0 0 0 
