# vtk DataFile Version 5.1
vtk output
ASCII
DATASET STRUCTURED_POINTS
DIMENSIONS 16 16 1
SPACING 1 1 1
ORIGIN 0 0 0
POINT_DATA 256
SCALARS scalars double
LOOKUP_TABLE default
0 0 0 0 0 0 0 0 0 
0 0 0 0 0 0 0 0 -0.0044022381568 
-0.0026573873656 0.00091940742041 0.005479123174 0.010180091332 0.01424152829 0.017024793155 0.018111753035 0.017359911756 0.014922217068 
0.011227556471 0.006926231047 0.0028132898143 -0.00024715458218 0 0 -0.0026573873656 0.011544127997 0.033730260462 
0.06023969498 0.086897496894 0.10958890744 0.12485036026 0.13037769851 0.12536810341 0.11064054214 0.088515435712 0.06247279398 
0.036643904558 0.015219546363 0 0 0.00091940742041 0.033730260462 0.083367838095 0.14211308741 0.20095364323 
0.25091938619 0.28442487866 0.29641099966 0.28510909796 0.25230955428 0.20309319969 0.14506679267 0.087220014772 0.038579087334 
0 0 0.005479123174 0.06023969498 0.14211308741 0.23864482178 0.33517655595 0.4170673857 0.47191514619 
0.49144012721 0.47274411217 0.41875264765 0.33777296968 0.24223481072 0.14680561797 0.06616621017 0 0 
0.010180091332 0.086897496894 0.20095364323 0.33517655595 0.46928672382 0.5829972657 0.65910973368 0.68613710812 0.66005611635 
0.58492276571 0.47225757147 0.33929386221 0.20635508473 0.093758730998 0 0 0.01424152829 0.10958890744 
0.25091938619 0.4170673857 0.5829972657 0.72364557174 0.81775611809 0.85112836609 0.81878718278 0.72574507958 0.58624143635 
0.42157433274 0.25685408138 0.11717076438 0 0 0.017024793155 0.12485036026 0.28442487866 0.47191514619 
0.65910973368 0.81775611809 0.92388904517 0.9614963477 0.92496741346 0.81995341416 0.66250911382 0.47664676234 0.29067341403 
0.13286722473 0 0 0.018111753035 0.13037769851 0.29641099966 0.49144012721 0.68613710812 0.85112836609 
0.9614963477 1.0005920463 0.96258146011 0.85334029416 0.68956154585 0.49621172935 0.30272196543 0.13849175688 0 
0 0.017359911756 0.12536810341 0.28510909796 0.47274411217 0.66005611635 0.81878718278 0.92496741346 0.96258146011 
0.92601756677 0.82092804889 0.663370957 0.47736350117 0.29121876527 0.13322150502 0 0 0.014922217068 
0.11064054214 0.25230955428 0.41875264765 0.58492276571 0.72574507958 0.81995341416 0.85334029416 0.82092804889 0.72773162204 
0.58799743554 0.42303409365 0.25796446722 0.11789206212 0 0 0.011227556471 0.088515435712 0.20309319969 
0.33777296968 0.47225757147 0.58624143635 0.66250911382 0.68956154585 0.663370957 0.58799743554 0.47497342174 0.341549782 
0.20807021826 0.094872869195 0 0 0.006926231047 0.06247279398 0.14506679267 0.24223481072 0.33929386221 
0.42157433274 0.47664676234 0.49621172935 0.47736350117 0.42303409365 0.341549782 0.24536774521 0.14918570828 0.067712872866 
0 0 0.0028132898143 0.036643904558 0.087220014772 0.14680561797 0.20635508473 0.25685408138 0.29067341403 
0.30272196543 0.29121876527 0.25796446722 0.20807021826 0.14918570828 0.090345645359 0.04061325418 0 0 
-0.00024715458218 0.015219546363 0.038579087334 0.06616621017 0.093758730998 0.11717076438 0.13286722473 0.13849175688 0.13322150502 
0.11789206212 0.094872869195 0.067712872866 0.04061325418 0.017813889185 0 0 0 0 
0 0 0 0 0 0 0 0 0 
0 0 0 0 
