# vtk DataFile Version 5.1
vtk output
ASCII
DATASET STRUCTURED_POINTS
DIMENSIONS 16 16 1
SPACING 1 1 1
ORIGIN 0 0 0
POINT_DATA 256
SCALARS scalars double
LOOKUP_TABLE default
0 0 0 0 0 0 0 0 0 
0 0 0 0 0 0 0 0 -0.0044022287212 
-0.0026573727695 0.00091942664901 0.0054791463341 0.010180117576 0.014241556656 0.017024822601 0.018111782481 0.017359940121 0.014922243312 
0.011227579631 0.0069262502756 0.0028133044104 -0.00024714514652 0 0 -0.0026573727695 0.011544150621 0.033730290283 
0.060239730905 0.086897537604 0.10958895144 0.12485040594 0.13037774419 0.12536814741 0.11064058285 0.088515471636 0.062472823801 
0.036643927182 0.015219560959 0 0 0.00091942664901 0.033730290283 0.083367877411 0.14211313478 0.20095369691 
0.25091944421 0.2844249389 0.29641105989 0.28510915599 0.25230960796 0.20309324706 0.14506683198 0.087220044593 0.038579106563 
0 0 0.0054791463341 0.060239730905 0.14211313478 0.23864487885 0.33517662062 0.41706745561 0.47191521877 
0.49144019979 0.47274418208 0.41875271233 0.33777302675 0.24223485808 0.14680565389 0.06616623333 0 0 
0.010180117576 0.086897537604 0.20095369691 0.33517662062 0.46928679712 0.58299734493 0.65910981594 0.68613719037 0.66005619558 
0.58492283901 0.47225763615 0.33929391589 0.20635512544 0.093758757242 0 0 0.014241556656 0.10958895144 
0.25091944421 0.41706745561 0.58299734493 0.72364565738 0.81775620699 0.851128455 0.81878726842 0.72574515881 0.58624150626 
0.42157439077 0.25685412538 0.11717079275 0 0 0.017024822601 0.12485040594 0.2844249389 0.47191521877 
0.65910981594 0.81775620699 0.92388913747 0.96149644 0.92496750237 0.81995349641 0.66250918639 0.47664682258 0.29067345971 
0.13286725418 0 0 0.018111782481 0.13037774419 0.29641105989 0.49144019979 0.68613719037 0.851128455 
0.96149644 1.0005921386 0.96258154901 0.85334037641 0.68956161842 0.49621178959 0.30272201111 0.13849178633 0 
0 0.017359940121 0.12536814741 0.28510915599 0.47274418208 0.66005619558 0.81878726842 0.92496750237 0.96258154901 
0.92601765241 0.82092812812 0.66337102691 0.47736355919 0.29121880927 0.13322153338 0 0 0.014922243312 
0.11064058285 0.25230960796 0.41875271233 0.58492283901 0.72574515881 0.81995349641 0.85334037641 0.82092812812 0.72773169534 
0.58799750022 0.42303414733 0.25796450793 0.11789208836 0 0 0.011227579631 0.088515471636 0.20309324706 
0.33777302675 0.47225763615 0.58624150626 0.66250918639 0.68956161842 0.66337102691 0.58799750022 0.47497347881 0.34154982936 
0.20807025418 0.094872892355 0 0 0.0069262502756 0.062472823801 0.14506683198 0.24223485808 0.33929391589 
0.42157439077 0.47664682258 0.49621178959 0.47736355919 0.42303414733 0.34154982936 0.24536778453 0.1491857381 0.067712892095 
0 0 0.0028133044104 0.036643927182 0.087220044593 0.14680565389 0.20635512544 0.25685412538 0.29067345971 
0.30272201111 0.29121880927 0.25796450793 0.20807025418 0.1491857381 0.090345667983 0.040613268777 0 0 
-0.00024714514652 0.015219560959 0.038579106563 0.06616623333 0.093758757242 0.11717079275 0.13286725418 0.13849178633 0.13322153338 
0.11789208836 0.094872892355 0.067712892095 0.040613268777 0.01781389862 0 0 0 0 
0 0 0 0 0 0 0 0 0 
0 0 0 0 
