# vtk DataFile Version 5.1
vtk output
ASCII
DATASET STRUCTURED_POINTS
DIMENSIONS 16 16 1
SPACING 1 1 1
ORIGIN 0 0 0
POINT_DATA 256
SCALARS scalars double
LOOKUP_TABLE default
0 0 0 0 0 0 0 0 0 
0 0 0 0 0 0 0 0 -0.0044022099431 
-0.0026573437215 0.00091946491615 0.0054791924254 0.010180169804 0.014241613106 0.017024881202 0.018111841082 0.017359996572 0.01492229554 
0.011227625723 0.0069262885426 0.0028133334583 -0.00024712636853 0 0 -0.0026573437215 0.011544195645 0.03373034963 
0.060239802398 0.086897618622 0.10958903901 0.12485049684 0.1303778351 0.12536823498 0.11064066387 0.08851554313 0.062472883147 
0.036643972206 0.015219590007 0 0 0.00091946491615 0.03373034963 0.083367955655 0.14211322905 0.20095380374 
0.25091955968 0.28442505877 0.29641117976 0.28510927146 0.25230971479 0.20309334133 0.14506691023 0.08722010394 0.03857914483 
0 0 0.0054791924254 0.060239802398 0.14211322905 0.23864499243 0.33517674934 0.41706759474 0.4719153632 
0.49144034422 0.4727443212 0.41875284104 0.33777314033 0.24223495235 0.14680572539 0.066166279421 0 0 
0.010180169804 0.086897618622 0.20095380374 0.33517674934 0.469286943 0.5829975026 0.65910997962 0.68613735406 0.66005635326 
0.58492298489 0.47225776487 0.33929402272 0.20635520646 0.09375880947 0 0 0.014241613106 0.10958903901 
0.25091955968 0.41706759474 0.5829975026 0.72364582781 0.81775638393 0.85112863193 0.81878743886 0.72574531649 0.58624164539 
0.42157450624 0.25685421295 0.1171708492 0 0 0.017024881202 0.12485049684 0.28442505877 0.4719153632 
0.65910997962 0.81775638393 0.92388932114 0.96149662367 0.9249676793 0.8199536601 0.66250933082 0.47664694245 0.29067355062 
0.13286731278 0 0 0.018111841082 0.1303778351 0.29641117976 0.49144034422 0.68613735406 0.85112863193 
0.96149662367 1.0005923222 0.96258172595 0.8533405401 0.68956176286 0.49621190946 0.30272210201 0.13849184493 0 
0 0.017359996572 0.12536823498 0.28510927146 0.4727443212 0.66005635326 0.81878743886 0.9249676793 0.96258172595 
0.92601782284 0.8209282858 0.66337116604 0.47736367466 0.29121889684 0.13322158983 0 0 0.01492229554 
0.11064066387 0.25230971479 0.41875284104 0.58492298489 0.72574531649 0.8199536601 0.8533405401 0.8209282858 0.72773184121 
0.58799762893 0.42303425416 0.25796458895 0.11789214059 0 0 0.011227625723 0.08851554313 0.20309334133 
0.33777314033 0.47225776487 0.58624164539 0.66250933082 0.68956176286 0.66337116604 0.58799762893 0.47497359239 0.34154992363 
0.20807032568 0.094872938446 0 0 0.0069262885426 0.062472883147 0.14506691023 0.24223495235 0.33929402272 
0.42157450624 0.47664694245 0.49621190946 0.47736367466 0.42303425416 0.34154992363 0.24536786277 0.14918579745 0.067712930361 
0 0 0.0028133334583 0.036643972206 0.08722010394 0.14680572539 0.20635520646 0.25685421295 0.29067355062 
0.30272210201 0.29121889684 0.25796458895 0.20807032568 0.14918579745 0.090345713007 0.040613297824 0 0 
-0.00024712636853 0.015219590007 0.03857914483 0.066166279421 0.09375880947 0.1171708492 0.13286731278 0.13849184493 0.13322158983 
0.11789214059 0.094872938446 0.067712930361 0.040613297824 0.017813917398 0 0 0 0 
0 0 0 0 0 0 0 0 0 
0 0 0 0 
