# vtk DataFile Version 5.1
vtk output
ASCII
DATASET STRUCTURED_POINTS
DIMENSIONS 16 16 1
SPACING 1 1 1
ORIGIN 0 0 0
POINT_DATA 256
SCALARS scalars double
LOOKUP_TABLE default
0 0 0 0 0 0 0 0 0 
0 0 0 0 0 0 0 0 -0.0044000737239 
-0.0026540392455 0.00092381801869 0.0054844353466 0.010186110515 0.014248033681 0.017031545991 0.018118505456 0.017366415962 0.014928234471 
0.01123286653 0.0069306395087 0.0028166360882 -0.00024499143482 0 0 -0.0026540392455 0.011549317484 0.033737100566 
0.060247934706 0.08690683382 0.10959899879 0.12486083552 0.13038817312 0.1253781929 0.11064987628 0.088523672123 0.062479630733 
0.036649091152 0.015222892473 0 0 0.00092381801869 0.033737100566 0.083376855882 0.14212395145 0.20096595442 
0.25093269235 0.28443869113 0.29642481127 0.28512240166 0.25232186177 0.20310405934 0.14507580601 0.087226851044 0.038583495272 
0 0 0.0054844353466 0.060247934706 0.14212395145 0.23865791071 0.33519138876 0.41708341747 0.47193178807 
0.49145676804 0.47276014096 0.41876747599 0.3377860533 0.24224566939 0.14681385306 0.066171519129 0 0 
0.010186110515 0.08690683382 0.20096595442 0.33519138876 0.46930353311 0.58301543384 0.6591285933 0.68615596654 0.66007428112 
0.58493956992 0.47227239826 0.33930616731 0.20636441641 0.093764746534 0 0 0.014248033681 0.10959899879 
0.25093269235 0.41708341747 0.58301543384 0.72366520867 0.81777650243 0.85114874915 0.81880681607 0.72576324224 0.5862574616 
0.42158763232 0.25686416704 0.11717726583 0 0 0.017031545991 0.12486083552 0.28443869113 0.47193178807 
0.6591285933 0.81777650243 0.92391020539 0.96151750658 0.92498779401 0.81997226807 0.66252574892 0.47666056797 0.29068388339 
0.13287397347 0 0 0.018118505456 0.13038817312 0.29642481127 0.49145676804 0.68615596654 0.85114874915 
0.96151750658 1.0006132038 0.96260183937 0.85335914688 0.68957817991 0.49622553412 0.30273243414 0.1384985052 0 
0 0.017366415962 0.1253781929 0.28512240166 0.47276014096 0.66007428112 0.81880681607 0.92498779401 0.96260183937 
0.92603719639 0.82094620816 0.66338697927 0.47737679828 0.29122884907 0.13322800528 0 0 0.014928234471 
0.11064987628 0.25232186177 0.41876747599 0.58493956992 0.72576324224 0.81997226807 0.85335914688 0.82094620816 0.72774842117 
0.58801225785 0.42304639505 0.2579737961 0.11789807587 0 0 0.01123286653 0.088523672123 0.20310405934 
0.3377860533 0.47227239826 0.5862574616 0.66252574892 0.68957817991 0.66338697927 0.58801225785 0.47498650004 0.34156063627 
0.20807845004 0.094878176039 0 0 0.0069306395087 0.062479630733 0.14507580601 0.24224566939 0.33930616731 
0.42158763232 0.47666056797 0.49622553412 0.47737679828 0.42304639505 0.34156063627 0.24537675412 0.1491925412 0.067717278665 
0 0 0.0028166360882 0.036649091152 0.087226851044 0.14681385306 0.20636441641 0.25686416704 0.29068388339 
0.30273243414 0.29122884907 0.2579737961 0.20807845004 0.1491925412 0.090350829057 0.040616598443 0 0 
-0.00024499143482 0.015222892473 0.038583495272 0.066171519129 0.093764746534 0.11717726583 0.13287397347 0.1384985052 0.13322800528 
0.11789807587 0.094878176039 0.067717278665 0.040616598443 0.017816051045 0 0 0 0 
0 0 0 0 0 0 0 0 0 
0 0 0 0 
