# vtk DataFile Version 5.1
vtk output
ASCII
DATASET STRUCTURED_POINTS
DIMENSIONS 16 16 1
SPACING 1 1 1
ORIGIN 0 0 0
POINT_DATA 256
SCALARS scalars double
LOOKUP_TABLE default
0 0 0 0 0 0 0 0 0 
0 0 0 0 0 0 0 0 -0.0044021016804 
-0.0026571762491 0.00091968554034 0.0054794581584 0.010180470919 0.014241938561 0.017025219057 0.018112178935 0.017360322025 0.014922596651 
0.011227891451 0.0069265091626 0.002813500927 -0.0002470181084 0 0 -0.0026571762491 0.011544455227 0.033730691788 
0.060240214585 0.086898085718 0.10958954388 0.12485102095 0.1303783592 0.12536873984 0.11064113096 0.08851595531 0.062473225298 
0.036644231782 0.015219757475 0 0 0.00091968554034 0.033730691788 0.083368406759 0.14211377253 0.20095441965 
0.2509202254 0.28442574986 0.29641187086 0.28510993717 0.25231033069 0.2030938848 0.14506736132 0.08722044609 0.038579365449 
0 0 0.0054794581584 0.060240214585 0.14211377253 0.23864564724 0.33517749143 0.41706839686 0.4719161959 
0.49144117691 0.47274512332 0.41875358313 0.33777379513 0.24223549582 0.14680613756 0.066166545147 0 0 
0.010180470919 0.086898085718 0.20095441965 0.33517749143 0.46928778402 0.58299841166 0.65911092333 0.68613829777 0.66005726231 
0.5849238259 0.47225850695 0.33929463862 0.20635567355 0.093759110578 0 0 0.014241938561 0.10958954388 
0.2509202254 0.41706839686 0.58299841166 0.72364681041 0.81775740399 0.85112965199 0.81878842145 0.72574622554 0.58624244749 
0.42157517194 0.2568547178 0.11717117465 0 0 0.017025219057 0.12485102095 0.28442574986 0.4719161959 
0.65911092333 0.81775740399 0.9238903801 0.96149768262 0.92496869935 0.8199546038 0.66251016351 0.47664763353 0.29067407471 
0.13286765062 0 0 0.018112178935 0.1303783592 0.29641187086 0.49144117691 0.68613829777 0.85112965199 
0.96149768262 1.0005933812 0.962582746 0.85334148379 0.68956259554 0.49621260054 0.3027226261 0.13849218277 0 
0 0.017360322025 0.12536873984 0.28510993717 0.47274512332 0.66005726231 0.81878842145 0.92496869935 0.962582746 
0.92601880543 0.82092919484 0.66337196814 0.47736434036 0.29121940169 0.13322191528 0 0 0.014922596651 
0.11064113096 0.25231033069 0.41875358313 0.5849238259 0.72574622554 0.8199546038 0.85334148379 0.82092919484 0.72773268221 
0.587998371 0.42303487005 0.25796505603 0.11789244169 0 0 0.011227891451 0.08851595531 0.2030938848 
0.33777379513 0.47225850695 0.58624244749 0.66251016351 0.68956259554 0.66337196814 0.587998371 0.47497424718 0.34155046709 
0.20807073785 0.094873204169 0 0 0.0069265091626 0.062473225298 0.14506736132 0.24223549582 0.33929463862 
0.42157517194 0.47664763353 0.49621260054 0.47736434036 0.42303487005 0.34155046709 0.24536831386 0.14918613959 0.067713150976 
0 0 0.002813500927 0.036644231782 0.08722044609 0.14680613756 0.20635567355 0.2568547178 0.29067407471 
0.3027226261 0.29121940169 0.25796505603 0.20807073785 0.14918613959 0.090345972577 0.040613465289 0 0 
-0.0002470181084 0.015219757475 0.038579365449 0.066166545147 0.093759110578 0.11717117465 0.13286765062 0.13849218277 0.13322191528 
0.11789244169 0.094873204169 0.067713150976 0.040613465289 0.017814025656 0 0 0 0 
0 0 0 0 0 0 0 0 0 
0 0 0 0 
