# vtk DataFile Version 5.1
vtk output
ASCII
DATASET STRUCTURED_POINTS
DIMENSIONS 16 16 1
SPACING 1 1 1
ORIGIN 0 0 0
POINT_DATA 256
SCALARS scalars double
LOOKUP_TABLE default
0 0 0 0 0 0 0 0 0 
0 0 0 0 0 0 0 0 -0.0044009481084 
-0.002655391797 0.00092203629413 0.0054822894819 0.010183679138 0.01424540601 0.017028818486 0.018115778236 0.017363789104 0.014925804316 
0.011230722116 0.0069288592507 0.0028152848039 -0.00024586493688 0 0 -0.002655391797 0.011547221096 0.033734337444 
0.060244606294 0.086903062333 0.10959492273 0.12485660457 0.13038394262 0.12537411811 0.11064610671 0.088520345986 0.062476869911 
0.03664699675 0.015221541301 0 0 0.00092203629413 0.033734337444 0.083373213148 0.14211956306 0.20096098165 
0.2509273179 0.28443311242 0.29641923315 0.2851170289 0.25231689154 0.20309967396 0.14507216633 0.087224090552 0.038581715374 
0 0 0.0054822894819 0.060244606294 0.14211956306 0.23865262376 0.33518539763 0.41707694233 0.4719250668 
0.49145004749 0.47275366786 0.41876148793 0.33778076999 0.24224128468 0.14681052783 0.06616937547 0 0 
0.010183679138 0.086903062333 0.20096098165 0.33518539763 0.46929674391 0.5830080961 0.65912097661 0.68614835067 0.66006694569 
0.5849327842 0.47226641127 0.33930119872 0.20636064852 0.09376231766 0 0 0.01424540601 0.10959492273 
0.2509273179 0.41707694233 0.5830080961 0.72365727804 0.8177682703 0.8511405179 0.81879888794 0.72575590826 0.58625099093 
0.42158226239 0.25686009488 0.11717464087 0 0 0.017028818486 0.12485660457 0.28443311242 0.4719250668 
0.65912097661 0.8177682703 0.92390166029 0.9615089624 0.92497956448 0.8199646553 0.6625190323 0.47665499396 0.2906796565 
0.13287124878 0 0 0.018115778236 0.13038394262 0.29641923315 0.49145004749 0.68614835067 0.8511405179 
0.9615089624 1.0006046605 0.96259361073 0.85335153492 0.689571464 0.4962199607 0.30272820769 0.1384957808 0 
0 0.017363789104 0.12537411811 0.2851170289 0.47275366786 0.66006694569 0.81879888794 0.92497956448 0.96259361073 
0.92602927077 0.82093887651 0.66338051065 0.47737143004 0.29122477819 0.13322538113 0 0 0.014925804316 
0.11064610671 0.25231689154 0.41876148793 0.5849327842 0.72575590826 0.8199646553 0.85335153492 0.82093887651 0.72774163894 
0.58800627393 0.423041429 0.25797003014 0.11789564822 0 0 0.011230722116 0.088520345986 0.20309967396 
0.33778076999 0.47226641127 0.58625099093 0.6625190323 0.689571464 0.66338051065 0.58800627393 0.47498122039 0.34155625458 
0.20807512708 0.094876033832 0 0 0.0069288592507 0.062476869911 0.14507216633 0.24224128468 0.33930119872 
0.42158226239 0.47665499396 0.4962199607 0.47737143004 0.423041429 0.34155625458 0.24537311748 0.14918978301 0.067715500235 
0 0 0.0028152848039 0.03664699675 0.087224090552 0.14681052783 0.20636064852 0.25686009488 0.2906796565 
0.30272820769 0.29122477819 0.25797003014 0.20807512708 0.14918978301 0.090348736643 0.04061524854 0 0 
-0.00024586493688 0.015221541301 0.038581715374 0.06616937547 0.09376231766 0.11717464087 0.13287124878 0.1384957808 0.13322538113 
0.11789564822 0.094876033832 0.067715500235 0.04061524854 0.017815178427 0 0 0 0 
0 0 0 0 0 0 0 0 0 
0 0 0 0 
