# vtk DataFile Version 5.1
vtk output
ASCII
DATASET STRUCTURED_POINTS
DIMENSIONS 16 16 1
SPACING 1 1 1
ORIGIN 0 0 0
POINT_DATA 256
SCALARS scalars double
LOOKUP_TABLE default
0 0 0 0 0 0 0 0 0 
0 0 0 0 0 0 0 0 -0.0043986061927 
-0.0026517692415 0.00092680816236 0.0054880363671 0.010190190344 0.014252442508 0.017036121902 0.018123080458 0.017370822195 0.014932310404 
0.011236462925 0.0069336249765 0.002818902052 -0.00024352671721 0 0 -0.0026517692415 0.011552835778 0.033741737586 
0.060253520019 0.08691316215 0.10960583757 0.12486793352 0.13039526969 0.12538502761 0.1106561985 0.08852925018 0.062484260421 
0.036652603115 0.015225158079 0 0 0.00092680816236 0.033741737586 0.083382968744 0.14213131511 0.20097429801 
0.25094170909 0.2844480497 0.29643416794 0.28513141302 0.25233019726 0.20311141339 0.14508190916 0.087231479677 0.038586479593 
0 0 0.0054880363671 0.060253520019 0.14213131511 0.23866678154 0.33520144033 0.41709428013 0.47194306256 
0.49146804026 0.4727709971 0.41877751777 0.33779491251 0.24225302132 0.14681942824 0.066175113116 0 0 
0.010190190344 0.08691316215 0.20097429801 0.33520144033 0.46931492274 0.58302774261 0.65914136877 0.68616873943 0.66008658249 
0.58495094844 0.47228243664 0.33931449757 0.20637073323 0.093768818379 0 0 0.014252442508 0.10960583757 
0.25094170909 0.41709428013 0.58302774261 0.72367851081 0.81779030897 0.85116255288 0.8188201102 0.72577553898 0.58626830998 
0.42159663464 0.25687099338 0.11718166602 0 0 0.017036121902 0.12486793352 0.2844480497 0.47194306256 
0.65914136877 0.81779030897 0.92392453545 0.96153183374 0.92500159223 0.81998503105 0.66253700859 0.47666991155 0.29069096846 
0.13287854041 0 0 0.018123080458 0.13039526969 0.29643416794 0.49146804026 0.68616873943 0.85116255288 
0.96153183374 1.0006275281 0.96261563479 0.85337190727 0.68958943729 0.49623487581 0.30273951778 0.13850307123 0 
0 0.017370822195 0.12538502761 0.28513141302 0.4727709971 0.66008658249 0.8188201102 0.92500159223 0.96261563479 
0.92605048252 0.82095849751 0.66339782113 0.4773857952 0.29123567133 0.13323240287 0 0 0.014932310404 
0.1106561985 0.25233019726 0.41877751777 0.58495094844 0.72577553898 0.81998503105 0.85337190727 0.82095849751 0.72775978856 
0.58802228643 0.4230547172 0.2579801068 0.11790214381 0 0 0.011236462925 0.08852925018 0.20311141339 
0.33779491251 0.47228243664 0.58626830998 0.66253700859 0.68958943729 0.66339782113 0.58802228643 0.47499534763 0.34156797857 
0.20808401795 0.094881765393 0 0 0.0069336249765 0.062484260421 0.14508190916 0.24225302132 0.33931449757 
0.42159663464 0.47666991155 0.49623487581 0.4773857952 0.4230547172 0.34156797857 0.24538284753 0.14919716249 0.067720258302 
0 0 0.002818902052 0.036652603115 0.087231479677 0.14681942824 0.20637073323 0.25687099338 0.29069096846 
0.30273951778 0.29123567133 0.2579801068 0.20808401795 0.14919716249 0.090354334679 0.040618860001 0 0 
-0.00024352671721 0.015225158079 0.038586479593 0.066175113116 0.093768818379 0.11718166602 0.13287854041 0.13850307123 0.13323240287 
0.11790214381 0.094881765393 0.067720258302 0.040618860001 0.017817512945 0 0 0 0 
0 0 0 0 0 0 0 0 0 
0 0 0 0 
