# vtk DataFile Version 5.1
vtk output
ASCII
DATASET STRUCTURED_POINTS
DIMENSIONS 16 16 1
SPACING 1 1 1
ORIGIN 0 0 0
POINT_DATA 256
SCALARS scalars double
LOOKUP_TABLE default
0 0 0 0 0 0 0 0 0 
0 0 0 0 0 0 0 0 -0.0043996661913 
-0.0026534088584 0.00092464841003 0.005485435415 0.010187243598 0.014249258186 0.017032816958 0.018119776226 0.017367639908 0.014929366714 
0.011233865601 0.0069314688918 0.0028172656042 -0.0002445845089 0 0 -0.0026534088584 0.011550294538 0.033738388328 
0.06024948587 0.086908591401 0.10960089822 0.12486280703 0.13039014433 0.12538009145 0.11065163254 0.088525221722 0.062480916914 
0.036650066841 0.015223521912 0 0 0.00092464841003 0.033738388328 0.083378553545 0.14212599655 0.20096827176 
0.25093519675 0.28444129059 0.29642741032 0.2851249049 0.25232417736 0.20310610236 0.14507750158 0.087228136997 0.038584324408 
0 0 0.005485435415 0.06024948587 0.14212599655 0.23866037447 0.33519418056 0.41708643468 0.4719349198 
0.49145989929 0.47276315676 0.41877026568 0.33778851455 0.24224771196 0.14681540204 0.066172517681 0 0 
0.010187243598 0.086908591401 0.20096827176 0.33519418056 0.46930669667 0.58301885284 0.65913214209 0.68615951478 0.66007769853 
0.58494273109 0.47227518722 0.33930848178 0.20636617151 0.093765877896 0 0 0.014249258186 0.10960089822 
0.25093519675 0.41708643468 0.58301885284 0.72366890376 0.8177803378 0.85115258392 0.81881050943 0.72576665865 0.58626047572 
0.42159013361 0.25686606378 0.11717848847 0 0 0.017032816958 0.12486280703 0.28444129059 0.4719349198 
0.65913214209 0.8177803378 0.92391418637 0.96152148694 0.92499162758 0.81997581417 0.66252887746 0.4766631642 0.29068585212 
0.1328752425 0 0 0.018119776226 0.13039014433 0.29642741032 0.49145989929 0.68615951478 0.85115258392 
0.96152148694 1.0006171835 0.96260567235 0.85336269243 0.68958130795 0.49622812994 0.30273440255 0.13849977404 0 
0 0.017367639908 0.12538009145 0.2851249049 0.47276315676 0.66007769853 0.81881050943 0.92499162758 0.96260567235 
0.92604088803 0.82094962298 0.66338999199 0.47737929841 0.29123074494 0.13322922736 0 0 0.014929366714 
0.11065163254 0.25232417736 0.41877026568 0.58494273109 0.72576665865 0.81997581417 0.85336269243 0.82094962298 0.72775157994 
0.5880150447 0.42304870776 0.25797554988 0.11789920639 0 0 0.011233865601 0.088525221722 0.20310610236 
0.33778851455 0.47227518722 0.58626047572 0.66252887746 0.68958130795 0.66338999199 0.5880150447 0.47498895879 0.34156267677 
0.20807999745 0.094879173593 0 0 0.0069314688918 0.062480916914 0.14507750158 0.24224771196 0.33930848178 
0.42159013361 0.4766631642 0.49622812994 0.47737929841 0.42304870776 0.34156267677 0.24537844759 0.14919382557 0.067718106792 
0 0 0.0028172656042 0.036650066841 0.087228136997 0.14681540204 0.20636617151 0.25686606378 0.29068585212 
0.30273440255 0.29123074494 0.25797554988 0.20807999745 0.14919382557 0.09035180338 0.040617227009 0 0 
-0.0002445845089 0.015223521912 0.038584324408 0.066172517681 0.093765877896 0.11717848847 0.1328752425 0.13849977404 0.13322922736 
0.11789920639 0.094879173593 0.067718106792 0.040617227009 0.017816457364 0 0 0 0 
0 0 0 0 0 0 0 0 0 
0 0 0 0 
