# vtk DataFile Version 5.1
vtk output
ASCII
DATASET STRUCTURED_POINTS
DIMENSIONS 16 16 1
SPACING 1 1 1
ORIGIN 0 0 0
POINT_DATA 256
SCALARS scalars double
LOOKUP_TABLE default
0 0 0 0 0 0 0 0 0 
0 0 0 0 0 0 0 0 -0.00043443512708 
0.0010341104543 0.0035480629703 0.0066997101904 0.0099688448323 0.012818652013 0.014787100237 0.015562443733 0.01503274564 0.013302466171 
0.010673486812 0.0075926328303 0.0045718892291 0.0020900658164 0 0 -0.00090685164559 0.0027887213995 0.0089131963825 
0.016466974653 0.024220200629 0.030921870676 0.035502689919 0.037244422695 0.035891843872 0.03169101767 0.025347956025 0.017912908793 
0.010605637195 0.0046040637096 0 0 -0.0017422638829 0.0049036744851 0.015814914748 0.029190500364 0.042858959983 
0.054629120626 0.062635294963 0.065627469036 0.063164040797 0.055678489037 0.044409724699 0.031205797949 0.018228881441 0.0076030274732 
0 0 -0.0028548706338 0.00708904192 0.023375859163 0.043289987298 0.063597158701 0.081050062484 0.092890489678 
0.097273392645 0.093549393203 0.082363209211 0.065552956417 0.045865061615 0.026526993924 0.010740966719 0 0 
-0.0040595976251 0.0090869321032 0.030618280541 0.056916405362 0.083704792992 0.10670337369 0.12228249228 0.12801673322 0.12305458637 
0.10824782829 0.086020903821 0.060000011921 0.034458061276 0.013659690333 0 0 -0.0051387164362 0.010673482567 
0.03658779145 0.068225974302 0.10043655875 0.12807399458 0.14677905708 0.1536408169 0.14763899899 0.12979923832 0.10303761054 
0.071718291381 0.040992153213 0.016017976196 0 0 -0.0058954097738 0.011671811599 0.04048386134 0.075656475068 
0.11145701596 0.14216576668 0.16293987367 0.17054677799 0.16385462276 0.14400463005 0.1142392385 0.079412591023 0.045258856468 
0.017531567178 0 0 -0.006194304386 0.011967590767 0.041773536405 0.078162716982 0.11520047349 0.14696797054 
0.16845492353 0.17631762316 0.16938587379 0.14884126308 0.11803966155 0.082005468781 0.046675703815 0.018011040247 0 
0 -0.0059868212362 0.011521229067 0.0402687186 0.075374435546 0.11111126372 0.14176623175 0.16250296759 0.17009377459 
0.1634091109 0.14358963939 0.11387468218 0.079113575608 0.045035184785 0.017388429079 0 0 -0.0053192076047 
0.010373129302 0.036154073029 0.067652097971 0.099727994105 0.12725114465 0.14587658829 0.15270400473 0.14671805343 0.12894293502 
0.10228764438 0.071105576971 0.040535825513 0.015727131182 0 0 -0.0043221926575 0.0086410679209 0.029961213225 
0.056032072437 0.082598949274 0.10540811318 0.1208548077 0.1265318918 0.12159605429 0.10689604773 0.084843378966 0.059044865177 
0.033752472673 0.013213451659 0 0 -0.0031825077097 0.0065114633054 0.022494056364 0.042069905578 0.06204136785 
0.079204582397 0.090841801493 0.095137178259 0.091453859646 0.080430669467 0.063883579412 0.044526316496 0.025551271704 0.010132147537 
0 0 -0.0020971649463 0.0042291395886 0.0147188741 0.027606390372 0.040780831819 0.052120901595 0.059824739482 
0.062687540436 0.060286159863 0.053043215898 0.042160824491 0.029433187954 0.016964647416 0.0068324928798 0 0 
-0.0012100410387 0.0020931827031 0.0076393016752 0.014493164706 0.021524759089 0.02759377432 0.03172986057 0.033283571747 0.03202642563 
0.028185431256 0.02240674829 0.015653235426 0.0090497039488 0.0036958266745 0 0 0 0 
0 0 0 0 0 0 0 0 0 
0 0 0 0 
