# vtk DataFile Version 5.1
vtk output
ASCII
DATASET STRUCTURED_POINTS
DIMENSIONS 16 16 1
SPACING 1 1 1
ORIGIN 0 0 0
POINT_DATA 256
SCALARS scalars double
LOOKUP_TABLE default
0 0 0 0 0 0 0 0 0 
0 0 0 0 0 0 0 0 -0.0006771950166 
-0.00086518760032 -0.0014089879068 -0.0022860750797 -0.0033278604409 -0.0043125091851 -0.0050325326717 -0.0053428611943 -0.0051898274633 -0.0046199709843 
-0.0037677823384 -0.0028220644806 -0.0019701339367 -0.0013154564121 0 0 0.0019832080065 0.0069376659 0.01343371089 
0.020553362613 0.027349513032 0.032927869288 0.03654987137 0.037728515337 0.036295567008 0.032426730775 0.026620513484 0.019636210669 
0.012405982467 0.0059447982856 0 0 0.0063086411573 0.019222071622 0.036623728569 0.056171650623 0.075187420603 
0.091025197155 0.10145363192 0.10498538412 0.1010996281 0.090321502994 0.074146136689 0.054820377721 0.035019114966 0.017471573859 
0 0 0.011591297711 0.034025338712 0.064460788784 0.098869159141 0.13250658177 0.16062968278 0.17921577168 
0.1855756132 0.1787639396 0.15972439003 0.13114675058 0.09705891849 0.062217130064 0.031389279672 0 0 
0.016979241289 0.049006981494 0.092563475487 0.14193020811 0.19028790734 0.23078219845 0.25758582335 0.26679799955 0.25704512104 
0.22969186123 0.18863069431 0.13968171441 0.089693476957 0.045480190628 0 0 0.02161399168 0.061818493613 
0.11654707485 0.17864652766 0.23953360659 0.2905583342 0.32435772823 0.33599956217 0.32374527802 0.28931749364 0.23763171369 
0.17603223959 0.11314631976 0.057526657989 0 0 0.024765916939 0.070467453239 0.13269578133 0.20333766661 
0.27262869075 0.3307159531 0.36920729178 0.38247903614 0.36854778623 0.32937577198 0.27056375609 0.20047695386 0.12893372862 
0.065650628704 0 0 0.02594781173 0.073623980584 0.13853039491 0.21221489337 0.28449548664 0.34509357782 
0.3852524964 0.3991034765 0.38457611752 0.34371719705 0.28236978902 0.20926013508 0.13462767179 0.068600188309 0 
0 0.024990069127 0.070824491943 0.13318674964 0.20395805785 0.27336539997 0.33154580152 0.37009759807 0.38339013857 
0.36943693706 0.33020151893 0.27128983982 0.20107489929 0.12938367716 0.06594048903 0 0 0.022066221981 
0.062542248738 0.11754784946 0.1799179909 0.24105050486 0.2922730588 0.32620157009 0.33788837548 0.3255882133 0.29102679819 
0.23913141038 0.17726380947 0.11407031468 0.058120366523 0 0 0.017664608155 0.050113593542 0.094109348354 
0.14391357093 0.19267375791 0.23349587056 0.26051523447 0.26980388215 0.25997672332 0.23240449944 0.19100121958 0.14161845804 
0.091138571053 0.046404277618 0 0 0.012509367232 0.035529706263 0.066597695308 0.10165382469 0.13589916158 
0.16452411442 0.18344375748 0.18992407732 0.18300153028 0.16363096506 0.13453929074 0.099807997133 0.064250000358 0.032678945629 
0 0 0.0074405849447 0.021122633818 0.039396611945 0.059871889364 0.079779505028 0.096364843242 0.10729521514 
0.11101127494 0.10696390003 0.095698293245 0.078772226394 0.058522362475 0.037717978924 0.019161923498 0 0 
0.0032677649238 0.009187689877 0.016864614808 0.025300628614 0.033397874548 0.040083753976 0.044456116304 0.045913452596 0.044244189291 
0.039658959208 0.032760608857 0.02445818393 0.015842491814 0.0080516918933 0 0 0 0 
0 0 0 0 0 0 0 0 0 
0 0 0 0 
