# vtk DataFile Version 5.1
vtk output
ASCII
DATASET STRUCTURED_POINTS
DIMENSIONS 16 16 1
SPACING 1 1 1
ORIGIN 0 0 0
POINT_DATA 256
SCALARS scalars double
LOOKUP_TABLE default
0 0 0 0 0 0 0 0 0 
0 0 0 0 0 0 0 0 0.00026381741947 
0.0001166022673 -0.00056019193683 -0.0016591170032 -0.0029460349681 -0.0041475342647 -0.0050181335997 -0.0053898016782 -0.0052024814883 -0.0045136259721 
-0.0034856013361 -0.0023509864702 -0.0013560798262 -0.00068053561566 0 0 0.0027237105796 0.0059995223031 0.0097895980298 
0.013653670588 0.017172456188 0.019963899112 0.021716885482 0.022226900875 0.021422487216 0.019375874629 0.016295888475 0.012506152313 
0.0084166893312 0.004502300087 0 0 0.0064917001188 0.015062723098 0.025848574158 0.037560085229 0.048731563599 
0.057916300474 0.063893161546 0.065846544051 0.063488547537 0.05710297125 0.047504267934 0.035919102678 0.023811792104 0.012685775033 
0 0 0.011005188022 0.025908876791 0.045083556269 0.066228162947 0.086616896873 0.10351468469 0.11459638556 
0.11830400276 0.1140861978 0.10248298174 0.08504266418 0.064084309 0.042343120945 0.022554626133 0 0 
0.015568006681 0.03685194314 0.064482817745 0.095143213358 0.12483645414 0.14952528216 0.16576735242 0.17125282618 0.16516324549 
0.1482975278 0.1229460212 0.09253159097 0.061071712861 0.032541976295 0 0 0.019471791086 0.046192668951 
0.081027892642 0.11979639037 0.15741946917 0.18874999011 0.20939275644 0.21639638872 0.20871428819 0.18736592497 0.15527414218 
0.116802373 0.077059993534 0.041077396277 0 0 0.022112029056 0.052486808866 0.09215941625 0.13637056603 
0.17931633971 0.21510517797 0.23870248467 0.24672621268 0.2379764652 0.21362050474 0.17700533036 0.13312505587 0.087820943859 
0.046830006679 0 0 0.023084252259 0.05476966051 0.09616967794 0.14232072636 0.18716209451 0.22453824487 
0.24918759349 0.25757504148 0.24844604648 0.22302008823 0.18479442764 0.13898660415 0.091697009423 0.048912623382 0 
0 0.022247354743 0.052704926522 0.092463986449 0.13676144418 0.17978694086 0.21564115618 0.23928209204 0.24732223868 
0.23855927465 0.21416145351 0.17747977373 0.13351428329 0.088112669738 0.047017477418 0 0 0.019745028994 
0.046636080624 0.081651797962 0.120602839 0.1583961273 0.18986711517 0.21060403117 0.21764333361 0.20993313535 0.18849532239 
0.15626191567 0.11760982375 0.077662846282 0.041463479896 0 0 0.015981844987 0.037532197177 0.065453590612 
0.096414307728 0.12639185736 0.15131761859 0.16771950743 0.17326606157 0.16712970942 0.15011421105 0.12452696781 0.093815565315 
0.062023575666 0.033147714947 0 0 0.011556455072 0.026835112412 0.046436580821 0.068036324752 0.088864662176 
0.10613326936 0.11746690268 0.12127157176 0.1169813329 0.10514532239 0.087341729429 0.065932485117 0.043697594911 0.023407576222 
0 0 0.0071595317604 0.016228122299 0.027617145053 0.039998418042 0.051832223457 0.061582988472 0.067947017999 
0.070050247312 0.067581995209 0.060842637835 0.050697770263 0.038447112829 0.025631311116 0.013812187343 0 0 
0.0034468355939 0.0073554766533 0.011986107468 0.016830199724 0.021342550917 0.024993594327 0.027337628611 0.028076354032 0.027103164588 
0.0245194412 0.02062014724 0.015852359171 0.010756860635 0.00590970814 0 0 0 0 
0 0 0 0 0 0 0 0 0 
0 0 0 0 
