# vtk DataFile Version 5.1
vtk output
ASCII
DATASET STRUCTURED_POINTS
DIMENSIONS 16 16 1
SPACING 1 1 1
ORIGIN 0 0 0
POINT_DATA 256
SCALARS scalars double
LOOKUP_TABLE default
0 0 0 0 0 0 0 0 0 
0 0 0 0 0 0 0 0 9.2257885685e-05 
-7.1371894202e-05 -0.00074079491147 -0.0018215790555 -0.0030876843065 -0.0042708875064 -0.0051289247782 -0.0054954243524 -0.0053105808387 -0.0046306972682 
-0.0036154795271 -0.0024930575836 -0.0015028775169 -0.00081398889523 0 0 0.0026055479097 0.0061919586843 0.010473653668 
0.014924380949 0.019030904208 0.022320439329 0.02440634304 0.025034254399 0.024115681266 0.021741190644 0.018170885307 0.013805623834 
0.0091483264599 0.0047706340328 0 0 0.0065025872288 0.015893507871 0.027911785223 0.041074819862 0.053694738386 
0.064105396049 0.070900888812 0.073142783801 0.070500606032 0.063302319787 0.052486928185 0.039467850869 0.025931227282 0.013605576758 
0 0 0.011190171457 0.027524523649 0.048813845544 0.072437369122 0.095295931376 0.11428293716 0.1267592112 
0.13095747745 0.12625351001 0.11326197884 0.093742366237 0.070329904953 0.046133803637 0.02426584512 0 0 
0.015938286767 0.039269186244 0.069901708297 0.10407254602 0.13726045912 0.16490444447 0.18311866557 0.18929738529 0.18251885445 
0.16368715093 0.13539050452 0.10149748014 0.066551832485 0.035056651733 0 0 0.020005530787 0.049299172779 
0.087890985004 0.13104700739 0.17303574465 0.20805716896 0.23116273346 0.23903163569 0.23048816175 0.20668280508 0.17090985013 
0.12808831835 0.083983041663 0.044280221353 0 0 0.022759694225 0.056061143711 0.099997160697 0.14918401283 
0.19707921032 0.23705191671 0.26344068546 0.27244484588 0.26271809569 0.23557601052 0.19478623062 0.14597196051 0.095716323836 
0.050497972955 0 0 0.023777939362 0.05851768839 0.10436231404 0.15569854562 0.20569683466 0.24743187032 
0.27498926105 0.28439789996 0.27425071961 0.24592160355 0.20334581169 0.15239591141 0.099944646895 0.052750930994 0 
0 0.022912812114 0.05630716464 0.10033930692 0.14962133886 0.19760386281 0.23764777103 0.2640837477 0.27310532025 
0.26336361256 0.23617525655 0.19531215312 0.14640384448 0.096040351714 0.05070633115 0 0 0.020314604211 
0.049798892096 0.088590901085 0.1319476565 0.17412228804 0.20929626063 0.23250344081 0.24041012922 0.23183500391 0.20793112216 
0.17200251919 0.12898256656 0.084651528977 0.044708696173 0 0 0.016406422426 0.040035048251 0.070988549673 
0.10548815401 0.13898516336 0.16688534932 0.18527140715 0.19151472168 0.18468389368 0.16568811501 0.13713366776 0.10291533792 
0.067604669331 0.035727465287 0 0 0.011814597694 0.028566715939 0.050325164233 0.074444056996 0.097777825279 
0.1171636786 0.12990958306 0.13421027561 0.1294260928 0.11618130031 0.096266894153 0.072363385974 0.047627435361 0.025208168539 
0 0 0.0072624993447 0.017205965669 0.029883172085 0.043770300025 0.057101636935 0.068117596199 0.075325413313 
0.077725103052 0.074962156326 0.06738191401 0.055977145477 0.042238142263 0.027931471393 0.014847450002 0 0 
0.0034389109553 0.0077257433723 0.012919169455 0.018421776497 0.023588548677 0.027792041124 0.030504341991 0.031372555321 0.030271176262 
0.027321262713 0.022873245224 0.017457488099 0.011714102284 0.0063210529499 0 0 0 0 
0 0 0 0 0 0 0 0 0 
0 0 0 0 
