# vtk DataFile Version 5.1
vtk output
ASCII
DATASET STRUCTURED_POINTS
DIMENSIONS 16 16 1
SPACING 1 1 1
ORIGIN 0 0 0
POINT_DATA 256
SCALARS scalars double
LOOKUP_TABLE default
0 0 0 0 0 0 0 0 0 
0 0 0 0 0 0 0 0 -0.00047383903405 
-0.00066199973796 -0.0012514158121 -0.0021987459878 -0.0033173835831 -0.0043701331441 -0.0051375865289 -0.0054671852695 -0.0053029679241 -0.0046946721853 
-0.003785234436 -0.0027764497844 -0.0018722817842 -0.001195946291 0 0 0.0021600743982 0.0067563302885 0.012665890473 
0.019075118905 0.025153249173 0.030119344005 0.033329615805 0.03435976274 0.033063073814 0.029592364386 0.024382004691 0.018094946156 
0.011548217729 0.0056384166541 0 0 0.0063924623887 0.018395701688 0.034393935487 0.052271221814 0.069610132849 
0.084023146089 0.093496629903 0.096688045254 0.093126793316 0.083286024345 0.068514224049 0.050838537086 0.032673362578 0.016484632246 
0 0 0.011542765459 0.032407249679 0.060470859813 0.092073638172 0.12290238633 0.14864234967 0.16563313596 
0.17142693524 0.1651625405 0.1476974375 0.12147780135 0.090166869927 0.058089670071 0.0295806228 0 0 
0.016787261937 0.04658145124 0.086794555247 0.13221880731 0.17663494129 0.21378722449 0.23835509727 0.24677573779 0.23779342924 
0.21265259867 0.17490528767 0.1298621933 0.0837701996 0.042840061838 0 0 0.021294242695 0.058699403837 
0.10925872182 0.16645025014 0.22243421432 0.26930333848 0.30032370647 0.31098287194 0.29968885004 0.26801513597 0.22045476546 
0.16371999958 0.10569196244 0.054175817876 0 0 0.024356228521 0.066877994281 0.12438314943 0.18947028267 
0.25321433488 0.30660139403 0.34195015913 0.35411143693 0.34126758295 0.30521241173 0.25106938937 0.18648971772 0.1204490766 
0.061820139524 0 0 0.025500608518 0.069860127401 0.12984580183 0.19774568884 0.26425094914 0.31995590952 
0.35684359378 0.36953900068 0.35614425634 0.3185309326 0.2620454906 0.19467127331 0.12577100391 0.064594635668 0 
0 0.024562782904 0.067207587722 0.12483742955 0.19004567983 0.25389907341 0.30737403562 0.34278013251 0.35496145586 
0.34209738954 0.30598298744 0.25174669438 0.18704716286 0.12086828851 0.062090093536 0 0 0.021710994863 
0.059367772952 0.11018535598 0.16763064404 0.22384575689 0.27090193577 0.30204495535 0.31274750247 0.30141113289 0.26961231522 
0.22185539872 0.16486939058 0.10655364337 0.054729196279 0 0 0.017418744508 0.047603802895 0.088227366897 
0.13406290376 0.17885922838 0.21632238906 0.24109573934 0.24959023369 0.24053907913 0.21519255387 0.17712344788 0.13167274587 
0.085119755922 0.043702388287 0 0 0.012387853758 0.033797236202 0.06245374843 0.09466777393 0.12607298098 
0.15229061876 0.16960013768 0.17551045621 0.16914272154 0.15136526902 0.12466014502 0.092742318451 0.059991413387 0.030785666992 
0 0 0.0074315764008 0.02015042092 0.036969499498 0.05572584293 0.073914246835 0.089041769139 0.09899662018 
0.1023665613 0.098653641133 0.088350484104 0.07286626135 0.054315071476 0.035202605533 0.018065760518 0 0 
0.0033311852418 0.0088279719238 0.015853996808 0.023517442822 0.030840826754 0.036870024963 0.040802533499 0.042103050906 0.040582925634 
0.036428939666 0.030176740813 0.022634606212 0.014773531739 0.0076096340979 0 0 0 0 
0 0 0 0 0 0 0 0 0 
0 0 0 0 
