# vtk DataFile Version 5.1
vtk output
ASCII
DATASET STRUCTURED_POINTS
DIMENSIONS 16 16 1
SPACING 1 1 1
ORIGIN 0 0 0
POINT_DATA 256
SCALARS scalars double
LOOKUP_TABLE default
0 0 0 0 0 0 0 0 0 
0 0 0 0 0 0 0 0 0.0011751273939 
0.0019453166322 0.0027893354765 0.0036556842497 0.0044654056825 0.0051298963403 0.0055688881679 0.0057256866192 0.0055772694945 0.0051376968074 
0.0044543205517 0.0035974019295 0.0026448108993 0.0016642715411 0 0 0.001795138878 0.0030007891135 0.0043395045449 
0.0057250517502 0.0070265187315 0.0080977621811 0.0088068734232 0.0090610121564 0.0088228246985 0.0081159758603 0.0070189578717 0.0056481010217 
0.0041323805169 0.0025840016759 0 0 0.0023437506843 0.0039538884067 0.0057680608969 0.0076620844404 0.0094501603832 
0.010926248288 0.011905139479 0.012256956726 0.011929932341 0.010958079362 0.0094525925002 0.0075782156027 0.0055180822071 0.0034324266808 
0 0 0.0028028509135 0.0047707248099 0.0070199820148 0.0093880173528 0.011634356051 0.01349388384 0.01472917913 
0.015174310282 0.014763714798 0.01354192338 0.011652652228 0.0093087741026 0.0067474713635 0.0041770997407 0 0 
0.0031594669291 0.005421587778 0.0080402877449 0.010817655239 0.013463372428 0.015658805509 0.017119453824 0.017647033842 0.017163778045 
0.015723979184 0.013501024878 0.010751651089 0.007762360212 0.0047854022193 0 0 0.0034046421696 0.0058816710931 
0.0087786154702 0.011869179434 0.014823110791 0.017279052609 0.018915044296 0.019507156186 0.018968058152 0.017359992268 0.014880175386 
0.011820515291 0.0085070539951 0.0052271558586 0 0 0.0035325267393 0.0061320557683 0.0091941617636 0.012474427402 
0.015617099768 0.018233597607 0.019978150511 0.02061058566 0.020037591527 0.018326585318 0.015690072278 0.012442469079 0.0089350799221 
0.0054776032386 0 0 0.0035398359073 0.0061607975334 0.0092601502158 0.012587901668 0.015780365209 0.018440509794 
0.020215221356 0.020859373148 0.020277909444 0.018539975104 0.01586293836 0.012568297932 0.0090152303682 0.0055202421148 0 
0 0.0034256468992 0.0059638494742 0.0089670253774 0.012192992848 0.015288888452 0.017869270925 0.019591246733 0.020216764354 
0.019653520896 0.017968682075 0.015373325104 0.012179542286 0.008735811077 0.0053488961919 0 0 0.0031914974812 
0.0055456115334 0.0083238179887 0.011304397909 0.014163134522 0.016545278762 0.01813493573 0.018712640093 0.018193163444 0.016638179734 
0.014241859193 0.011291201025 0.008106340604 0.004968604428 0 0 0.0028417847936 0.0049190418976 0.00735749413 
0.009966385226 0.012465130795 0.014545868162 0.015934005939 0.016438528908 0.015985035426 0.014626789771 0.01253210583 0.0099496705421 
0.007156456872 0.004395205119 0 0 0.0023845032028 0.0041054243361 0.006110501313 0.00824728429 0.010289656204 
0.011988575868 0.013121428701 0.013533086348 0.013162877008 0.012053594875 0.010341176674 0.0082263821219 0.0059323383573 0.00365380911 
0 0 0.0018323728642 0.0031339934398 0.0046370633325 0.0062312327223 0.0077511006305 0.0090136848236 0.0098550028266 
0.010160550241 0.0098853260417 0.009060514396 0.0077858072646 0.0062083800302 0.0044914235259 0.0027766265489 0 0 
0.0012042818138 0.0020415788396 0.0029989531805 0.0040086754199 0.0049683290984 0.005764141716 0.0062938850331 0.0064860131925 0.006312250474 
0.0057917918799 0.00498648322 0.0039876495441 0.0028964639935 0.0018006219725 0 0 0 0 
0 0 0 0 0 0 0 0 0 
0 0 0 0 
