# vtk DataFile Version 5.1
vtk output
ASCII
DATASET STRUCTURED_POINTS
DIMENSIONS 16 16 1
SPACING 1 1 1
ORIGIN 0 0 0
POINT_DATA 256
SCALARS scalars double
LOOKUP_TABLE default
0 0 0 0 0 0 0 0 0 
0 0 0 0 0 0 0 0 -0.0040577385828 
-0.0020919998055 0.0021434142245 0.0077359317721 0.01364061297 0.018825783526 0.022423048322 0.023855377801 0.022922530135 0.019830182091 
0.015157756951 0.0097690811421 0.0046784847547 0.00089208286023 0 0 -0.0048766202215 0.00513411206 0.022027929691 
0.042854951238 0.06415803177 0.08249378396 0.094951097533 0.099589860147 0.095733458415 0.084070370652 0.066548790365 0.046079127186 
0.026087438604 0.0099834105229 0 0 -0.0053965628253 0.016379265673 0.051454781763 0.094005263148 0.13718092865 
0.17414749972 0.1991213529 0.20824522674 0.20017249128 0.1762712931 0.14041706135 0.098403757778 0.05706104274 0.02320688183 
0 0 -0.0058155217035 0.029715239993 0.085927454818 0.15366521532 0.22216208256 0.28067317397 0.32010309508 
0.33438452116 0.32139872199 0.28329823677 0.226182378 0.15917422131 0.093038051929 0.038544850934 0 0 
-0.0061822916018 0.043043585477 0.12025588225 0.21298958543 0.30659704998 0.38646158951 0.4402100267 0.45958804258 0.44171319802 
0.38951503584 0.31129530997 0.21947525895 0.12872053447 0.053729119146 0 0 -0.0064752690637 0.05433696004 
0.14929768888 0.26314438564 0.37795307702 0.47584071379 0.54166967545 0.56534147416 0.54332994762 0.47922042734 0.38317304866 
0.27039257324 0.15883896758 0.066529631067 0 0 -0.0066498499517 0.061904156589 0.16871216945 0.29664459014 
0.42559291897 0.53549722112 0.60937794199 0.63590804552 0.61113273183 0.53907460844 0.43113256179 0.30436699825 0.17893475873 
0.075068201996 0 0 -0.0066674636361 0.064624492834 0.17560533978 0.30848991584 0.44240385662 0.55652466729 
0.63322789095 0.66075653871 0.63500600366 0.56015232302 0.4480285578 0.31634554957 0.1860305003 0.078093071709 0 
0 -0.0065113703262 0.062107870408 0.16896320245 0.29692446485 0.42588547102 0.53579019998 0.60966325438 0.63618087875 
0.61138997649 0.53931308421 0.43134755779 0.30455157116 0.17908007892 0.075164982767 0 0 -0.0061909190178 
0.054752327844 0.14980482737 0.26370376146 0.37853121808 0.47641350711 0.54222260265 0.56586739546 0.54382537848 0.47968140581 
0.38359170528 0.27075538778 0.15912740133 0.066723310769 0 0 -0.0057342958149 0.043689669696 0.12103147905 
0.21382832735 0.30744576675 0.38728535167 0.44099173376 0.46032383014 0.4424053296 0.39016414024 0.31189385073 0.22000395684 
0.12914906133 0.054021652374 0 0 -0.0051683986553 0.030629786448 0.086996213392 0.15478477592 0.22325586912 
0.28169781931 0.32104606508 0.33525531991 0.3222162952 0.28407741729 0.22692228542 0.15985135938 0.093606406029 0.03894450528 
0 0 -0.00448191597 0.017633450578 0.052862995016 0.095410887055 0.13847931862 0.17529193048 0.20011628975 
0.20913045768 0.2010018059 0.17708978199 0.14124130588 0.099209035025 0.057779223345 0.023738133493 0 0 
-0.0035611732149 0.0068596580703 0.023858554104 0.044558463987 0.065597747492 0.08362985404 0.095825813468 0.10030062634 0.09639805361 
0.084790135653 0.067375864717 0.046993680301 0.026990161349 0.010707976644 0 0 0 0 
0 0 0 0 0 0 0 0 0 
0 0 0 0 
