# vtk DataFile Version 5.1
vtk output
ASCII
DATASET STRUCTURED_POINTS
DIMENSIONS 16 16 1
SPACING 1 1 1
ORIGIN 0 0 0
POINT_DATA 256
SCALARS scalars double
LOOKUP_TABLE default
0 0 0 0 0 0 0 0 0 
0 0 0 0 0 0 0 0 -0.0036774837672 
-0.0017186331094 0.0024253020701 0.0078819052708 0.013640180057 0.018696932716 0.022205640952 0.023602904502 0.022692563558 0.019674309813 
0.015111919342 0.0098450744073 0.0048568799221 0.0011157842613 0 0 -0.0045670311015 0.0047204813052 0.02044682655 
0.039867345629 0.059753082656 0.076882686921 0.0885305459 0.092879201184 0.089294073906 0.078418743006 0.06207573703 0.042986659714 
0.024351768109 0.0093481920241 0 0 -0.0052923346311 0.014658458796 0.046942209874 0.086180077242 0.12603662721 
0.16018641815 0.18327456328 0.19172888036 0.18430155144 0.16225823422 0.1291854403 0.090444249373 0.052350940214 0.021204253208 
0 0 -0.0059954835456 0.026395350381 0.077890924946 0.14006313642 0.20299571994 0.2567897439 0.29306477379 
0.30622985075 0.29433203512 0.25935373536 0.20691337469 0.14541419703 0.084769204512 0.034893428861 0 0 
-0.0066669488714 0.038095578327 0.10866053756 0.19357207098 0.27936790891 0.3526139568 0.40193793704 0.41975306422 0.40340968214 
0.35559969236 0.28395223876 0.19988215231 0.11686635542 0.048410522624 0 0 -0.0072296083532 0.047992006885 
0.13466448043 0.23877284746 0.34386251793 0.43351829823 0.49384580923 0.51557614633 0.49547274589 0.43682611492 0.34896132051 
0.24583386661 0.14392901322 0.059786724444 0 0 -0.0075928622585 0.054612887589 0.15203232691 0.26894279557 
0.38689500395 0.48748754782 0.55514611457 0.5794815927 0.55686678176 0.49099126025 0.39231026658 0.2764726267 0.16196931098 
0.06736461116 0 0 -0.0076878340779 0.056983640583 0.15818375754 0.279590457 0.40205547706 0.50648205694 
0.57670809381 0.60195273216 0.57845238269 0.51003660933 0.4075565724 0.28725433524 0.16832386088 0.070039546522 0 
0 -0.0074874076317 0.054765039306 0.15221429837 0.26913777893 0.38708927441 0.48767211628 0.55531689627 0.57963832519 
0.55701114441 0.49112475701 0.3924324489 0.27658015494 0.16205617335 0.067423527953 0 0 -0.0070119620275 
0.048303108118 0.13503174556 0.23915998207 0.34424090141 0.43387042109 0.49416536228 0.51586536543 0.49573803205 0.43707315817 
0.34919098695 0.24603995761 0.14409865026 0.059903518468 0 0 -0.0063205485354 0.038582541586 0.10922208698 
0.19414640027 0.2799090229 0.35309702597 0.40235867499 0.42012239633 0.40374551412 0.35591787541 0.28425888313 0.2001692357 
0.11711206708 0.048584900699 0 0 -0.005486426969 0.02709305984 0.078666802921 0.14081914928 0.2036645632 
0.25734186063 0.29350571149 0.30659030648 0.2946534643 0.2596727675 0.20724838899 0.14575718533 0.085085448445 0.035130475671 
0 0 -0.0045538949391 0.01563503278 0.047973339021 0.087114329994 0.12678021071 0.16071038046 0.18360772954 
0.19194018173 0.18447589515 0.1624706361 0.12947839276 0.090813079373 0.052741253521 0.021524609339 0 0 
-0.0034674743955 0.0061052444774 0.021811142669 0.04098200268 0.06049276005 0.077229554145 0.08855905823 0.092726228961 0.089119787775 
0.078364898806 0.062228553579 0.043351229807 0.024844038661 0.0098095646255 0 0 0 0 
0 0 0 0 0 0 0 0 0 
0 0 0 0 
