# vtk DataFile Version 5.1
vtk output
ASCII
DATASET STRUCTURED_POINTS
DIMENSIONS 16 16 1
SPACING 1 1 1
ORIGIN 0 0 0
POINT_DATA 256
SCALARS scalars double
LOOKUP_TABLE default
0 0 0 0 0 0 0 0 0 
0 0 0 0 0 0 0 0 -0.0054876261455 
-0.0045791842508 -0.0019910065883 0.0015067610181 0.0051878063099 0.0083978639371 0.010611227959 0.011488436847 0.010917780286 0.0090305323457 
0.0061866102863 0.0029342292602 -4.5586374564e-05 -0.0019894100379 0 0 -0.0042495037075 0.0086234407647 0.029201333865 
0.053963050757 0.078932432878 0.10021025109 0.11452416589 0.11970260585 0.11499405621 0.10117987757 0.080462513467 0.056147162801 
0.032168667136 0.012541561861 0 0 -0.0010589887336 0.029951885222 0.077354669144 0.13364256575 0.1900954428 
0.23805646162 0.2702164846 0.28170708967 0.27083261667 0.23932785894 0.19210150101 0.13650483629 0.08123845297 0.035064731609 
0 0 0.0032343708442 0.05576684946 0.13480744609 0.22819060617 0.32164707995 0.40094924799 0.45405761771 
0.47294181307 0.45479814345 0.40247777327 0.32406006506 0.23163616897 0.13948823947 0.061941015818 0 0 
0.0077739416772 0.081903109478 0.19260131171 0.32305827983 0.45347423055 0.5640684036 0.63808479703 0.66433963909 0.63892374252 
0.56580099739 0.45621207898 0.32697418168 0.19793535105 0.088970022598 0 0 0.011757686407 0.10424836779 
0.24181404112 0.40371068852 0.56545634256 0.70256904231 0.79429959558 0.8267941925 0.79520740819 0.70444504875 0.56842430192 
0.40796392042 0.24762525574 0.11198411396 0 0 0.014526375166 0.11933818549 0.27489841182 0.45783444846 
0.64053653849 0.7953824152 0.89895546569 0.93561822262 0.89989973318 0.79733489459 0.64362876096 0.46227323566 0.28097863861 
0.12746255877 0 0 0.015647251636 0.12486690595 0.28682029457 0.47720933691 0.66732342995 0.8284350948 
0.93618885996 0.97431936598 0.93713535102 0.83039299248 0.67042650404 0.48166859592 0.29293800936 0.13305856585 0 
0 0.014972415161 0.12003105995 0.27582013238 0.45895902773 0.64182912401 0.79679913525 0.90044446637 0.93712200153 
0.90135847421 0.79869022378 0.64482724775 0.46326907652 0.28173524932 0.12795318098 0 0 0.012659532592 
0.10565003174 0.24368026523 0.40599019639 0.56807955339 0.70544732148 0.79732721925 0.82985326773 0.79817505398 0.70720150583 
0.57086043105 0.40998680145 0.24916126044 0.11297972938 0 0 0.0091507460195 0.084044640648 0.19545672056 
0.32655288635 0.4575043892 0.56849906493 0.6427521456 0.6690591956 0.64350256701 0.57005151804 0.45996472279 0.3300864225 
0.20029597283 0.090499145892 0 0 0.0051140980193 0.058692823608 0.13871641852 0.23298884452 0.32719911195 
0.40707149768 0.46052129573 0.47948537831 0.46114671757 0.40836519435 0.32924875883 0.23593067751 0.14274010564 0.064045793784 
0 0 0.0013605302358 0.033717433413 0.082396622532 0.13985794876 0.19732289864 0.2460618222 0.27869551698 
0.29030460724 0.27917292875 0.24704933046 0.19888735364 0.14210316576 0.085466926102 0.03780010052 0 0 
-0.0012401589876 0.013289082604 0.035460875532 0.061726707684 0.088026579142 0.11034865189 0.12531121734 0.13066355684 0.1256229065 
0.11099342104 0.089048311851 0.063194086802 0.037471185196 0.015974047348 0 0 0 0 
0 0 0 0 0 0 0 0 0 
0 0 0 0 
