# vtk DataFile Version 5.1
vtk output
ASCII
DATASET STRUCTURED_POINTS
DIMENSIONS 16 16 1
SPACING 1 1 1
ORIGIN 0 0 0
POINT_DATA 256
SCALARS scalars double
LOOKUP_TABLE default
0 0 0 0 0 0 0 0 0 
0 0 0 0 0 0 0 0 -0.0046268212679 
-0.0026236373413 0.0014489271969 0.0066428352342 0.011995880073 0.016609905771 0.019750686886 0.020940000687 0.020019294546 0.017172220357 
0.012901554672 0.007964587563 0.0032796482848 -0.00017417529162 0 0 -0.0035425241449 0.01069301019 0.033198945419 
0.060195900916 0.087381315316 0.11052402981 0.12607014947 0.13166180166 0.12648553902 0.11139483146 0.088786887769 0.062252642943 
0.036054393022 0.014512613294 0 0 -0.0010075786549 0.031400929612 0.080948743501 0.13979036697 0.19880241516 
0.24892734205 0.28251993905 0.29449112301 0.28307328074 0.25008921354 0.20068284446 0.14255230102 0.084801818993 0.036585818567 
0 0 0.002269216237 0.056058753329 0.1372911634 0.23338287393 0.32959425637 0.41124161191 0.4659077367 
0.48531639807 0.46658544352 0.41266725397 0.33190894193 0.23679876754 0.14208883922 0.062577950114 0 0 
0.0056436813418 0.080788317198 0.19361517806 0.32682354621 0.46008655114 0.5731234978 0.64876925277 0.67557595733 0.64955190903 
0.57477298425 0.46277333911 0.33080787384 0.19925045951 0.088522874138 0 0 0.0085463106085 0.10178856439 
0.24136834002 0.40599300202 0.57061013576 0.7102058552 0.80359981633 0.83666183133 0.80446166274 0.71202516916 0.57358181372 
0.41041813782 0.24766396762 0.11050050784 0 0 0.010523852894 0.1158700117 0.27332779411 0.45893889026 
0.64449647108 0.80182747421 0.9070716309 0.94430840143 0.90798104721 0.8037494261 0.6476420065 0.46363650346 0.28003786783 
0.12520569432 0 0 0.011285462568 0.12091638999 0.28468216975 0.47768774069 0.67061814007 0.83419057278 
0.94360334885 0.98230694121 0.94452443852 0.83613832945 0.67380900022 0.48245956358 0.29151052653 0.13043848714 0 
0 0.010736793173 0.11619595017 0.27375613016 0.4594559989 0.64508572704 0.80246922138 0.90774343051 0.94498573825 
0.9086384545 0.80436182241 0.64818597762 0.4640913219 0.28038619357 0.12543407646 0 0 0.0089925871463 
0.10247129848 0.24226502568 0.40707521663 0.57184341351 0.71154935496 0.80500667086 0.83808060978 0.80583882815 0.7133080209 
0.5747212725 0.41137087322 0.248393736 0.11097902753 0 0 0.0063647500601 0.0818898924 0.19505996318 
0.3285661022 0.4620724233 0.57528782816 0.65103685631 0.67786366098 0.65177282679 0.57684168388 0.46461063292 0.33234423603 
0.20042778324 0.089295276946 0 0 0.0033294082701 0.057673104165 0.13940247306 0.23592590685 0.33249226848 
0.41440215292 0.46922171892 0.48866158736 0.46983348555 0.41569221861 0.33459505307 0.23904542671 0.14381224895 0.063710582533 
0 0 0.00048365929769 0.033655264553 0.083880761715 0.14331333552 0.20281665156 0.25330955751 0.28712017991 
0.29913811251 0.28758590689 0.25429046291 0.20441212732 0.14567271465 0.087200575755 0.038169255371 0 0 
-0.0014873480531 0.013750734665 0.037134786493 0.064906172797 0.092748114467 0.11639198498 0.13224037207 0.13790086901 0.13254445981 
0.11703170234 0.093786685243 0.066438223899 0.039284478926 0.016666132298 0 0 0 0 
0 0 0 0 0 0 0 0 0 
0 0 0 0 
