# vtk DataFile Version 5.1
vtk output
ASCII
DATASET STRUCTURED_POINTS
DIMENSIONS 16 16 1
SPACING 1 1 1
ORIGIN 0 0 0
POINT_DATA 256
SCALARS scalars double
LOOKUP_TABLE default
0 0 0 0 0 0 0 0 0 
0 0 0 0 0 0 0 0 -0.0049878383632 
-0.0030794549031 0.0010216795873 0.0063451206043 0.011885097657 0.01669272164 0.01998780808 0.02126014074 0.020338841402 0.017416617583 
0.01302425632 0.0079596528406 0.0031845071683 -0.00028878835237 0 0 -0.0043289996648 0.0094730982613 0.031637487181 
0.058395167882 0.085436074786 0.10851293192 0.12405453282 0.129689776 0.12459903904 0.10963730918 0.087209372407 0.060915999512 
0.035025712173 0.013853687878 0 0 -0.002331934651 0.02916486437 0.077812196912 0.13582902322 0.19414988315 
0.24376695011 0.27707358631 0.28900474034 0.27779944213 0.24526827879 0.19652443652 0.1392188035 0.082394963833 0.035136470196 
0 0 0.00035717528853 0.052686782666 0.13236178115 0.22692830329 0.32178608171 0.40238428853 0.4564154255 
0.47567498402 0.45730409528 0.40422582129 0.32470835223 0.23112116874 0.13807266983 0.060210784337 0 0 
0.0031698001241 0.076316449474 0.18693302115 0.31791415913 0.44915546502 0.56059455737 0.63524938024 0.66179312629 0.63627470904 
0.56272323577 0.45254453375 0.32280147928 0.19363954997 0.085248726093 0 0 0.0056119731268 0.096407184583 
0.23322742782 0.39503113716 0.55705943206 0.69459007609 0.78668891725 0.81938932154 0.78781666665 0.69693513404 0.56080351088 
0.4004535827 0.24071441346 0.10646652634 0 0 0.0072939428127 0.10989905989 0.26423488016 0.44663129284 
0.62922263677 0.78417679963 0.88792220717 0.92473053479 0.8891108108 0.78665123484 0.6331811658 0.45238146182 0.27220781983 
0.12067313005 0 0 0.0079665543751 0.11476103086 0.27528403389 0.46494154786 0.65477649407 0.81586445177 
0.92370751226 0.96195857337 0.92491014166 0.81836955879 0.65878808425 0.47077715588 0.28339102322 0.12574355532 0 
0 0.007548874845 0.11028922153 0.26474573633 0.44724474502 0.62991756728 0.78492939277 0.88870633688 0.9255184199 
0.88987396623 0.78736160312 0.63381225528 0.452909359 0.27261205706 0.12093751008 0 0 0.0061385356151 
0.097212164955 0.23428014073 0.39629406459 0.55848926362 0.69613813016 0.78830173978 0.82100995248 0.7893866157 0.69839676663 
0.56210241854 0.40154061576 0.24154734009 0.107011616 0 0 0.0040022227226 0.077585983575 0.18858917783 
0.31989738079 0.4513983479 0.56302172236 0.63777783653 0.66433405848 0.63873666565 0.56501606682 0.45458321338 0.32450915805 
0.19494975527 0.086107403838 0 0 0.0015496888899 0.054497017978 0.13471275101 0.22973473065 0.32495444104 
0.40581052566 0.45998420595 0.47926190032 0.46078048548 0.40746485358 0.32759073659 0.23353921275 0.13993239236 0.061433400678 
0 0 -0.00069859115534 0.03162182244 0.080977869168 0.13958886414 0.19838373561 0.24834113649 0.2818376401 
0.2937941157 0.28244285025 0.24959704465 0.20038095319 0.14246165642 0.084899713259 0.036793817399 0 0 
-0.0021301952513 0.012720429397 0.035763799115 0.0632576936 0.090892521165 0.11440189297 0.13018832358 0.13585846994 0.13058209475 
0.11521819551 0.092188401382 0.065117079309 0.03829411248 0.016044983466 0 0 0 0 
0 0 0 0 0 0 0 0 0 
0 0 0 0 
