# vtk DataFile Version 5.1
vtk output
ASCII
DATASET STRUCTURED_POINTS
DIMENSIONS 16 16 1
SPACING 1 1 1
ORIGIN 0 0 0
POINT_DATA 256
SCALARS scalars double
LOOKUP_TABLE default
0 0 0 0 0 0 0 0 0 
0 0 0 0 0 0 0 0 0.0014131813709 
0.0017432705121 0.001707347056 0.0013991377646 0.00094945499223 0.00049408160947 0.00014834506942 -1.1949261281e-05 3.7586293078e-05 0.00026614234535 
0.0005925841402 0.000898992122 0.0010527111038 0.0009374285995 0 0 0.0028265942986 0.003835291339 0.0044022277987 
0.0046177951763 0.0045989674503 0.004462708769 0.0043057226613 0.0041897202783 0.0041324249181 0.0041048189152 0.0040350208246 0.0038189882173 
0.0033383182096 0.0024861478815 0 0 0.004608609741 0.0065330786804 0.0079882885205 0.0090419274012 0.0097610527686 
0.010202409093 0.01040693215 0.010396713302 0.010173522263 0.0097185274912 0.0089932460713 0.0079421357874 0.0064977492671 0.0045901460519 
0 0 0.0065706970622 0.009527288307 0.01201445774 0.014068000535 0.015685856271 0.016841881995 0.017500678253 
0.017630519209 0.017212053169 0.016241303844 0.014726529874 0.012679594909 0.010103558098 0.0069791022531 0 0 
0.0084662281628 0.012429308704 0.015936121385 0.018989078996 0.021513221207 0.023394869355 0.02451803969 0.02479429907 0.024182221176 
0.022693819543 0.020387017272 0.017345046647 0.013645318092 0.0093214187068 0 0 0.010040033783 0.014842244548 
0.019204875427 0.023101694431 0.026394632195 0.028894072671 0.030414085092 0.030817033396 0.030042395778 0.02811616748 0.025139475224 
0.021257507326 0.016612034198 0.011282142535 0 0 0.011072988001 0.016427084804 0.021355148318 0.025811827742 
0.029616518905 0.03252830121 0.034313941432 0.034802522626 0.033920619007 0.031703705955 0.028282141421 0.023842970265 0.018571337995 
0.012576821585 0 0 0.011418050204 0.016956981872 0.022076409885 0.026724430661 0.030705412627 0.033760175202 
0.035638593987 0.036157849376 0.035239896765 0.032923595104 0.02934972509 0.024720208107 0.019235511344 0.013015818484 0 
0 0.011023758734 0.016352901351 0.021261017619 0.025703201516 0.029498570307 0.032405485582 0.034189893221 0.03468024529 
0.033802859304 0.031593368416 0.028182591783 0.023758099178 0.018505312156 0.01253354075 0 0 0.0099421966962 
0.014695854382 0.01902087723 0.022891685415 0.026169173997 0.028661723568 0.030181248493 0.030588503301 0.029822338213 0.02790920059 
0.024951493673 0.021095941518 0.016485352379 0.011198608177 0 0 0.0083202250612 0.012213856481 0.015670395328 
0.018692516536 0.021202317937 0.023081502279 0.024209413103 0.02449423481 0.023893282926 0.022419635492 0.020134132226 0.017123697856 
0.01346871186 0.0092034313445 0 0 0.0063747321235 0.0092449585434 0.011677877527 0.013707849232 0.015325680025 
0.016495461745 0.017172401991 0.017318159418 0.016911024575 0.015949293774 0.014447333262 0.012425055331 0.0098927487032 0.0068343589906 
0 0 0.0043541701222 0.0061804027891 0.0075917127951 0.0086497510528 0.0094059218246 0.0098975434837 0.010147619362 
0.010165893261 0.0099498807885 0.009485261899 0.0087455622889 0.0076915927869 0.0062718071626 0.0044257561431 0 0 
0.0024888386168 0.0033933653996 0.0039505977334 0.0042336718845 0.0043274643466 0.0043121257823 0.0042515222257 0.0041851625901 0.0041233037302 
0.0040453726363 0.0039019193525 0.0036203333555 0.0031148384292 0.0023021304448 0 0 0 0 
0 0 0 0 0 0 0 0 0 
0 0 0 0 
