# vtk DataFile Version 5.1
vtk output
ASCII
DATASET STRUCTURED_POINTS
DIMENSIONS 16 16 1
SPACING 1 1 1
ORIGIN 0 0 0
POINT_DATA 256
SCALARS scalars double
LOOKUP_TABLE default
0 0 0 0 0 0 0 0 0 
0 0 0 0 0 0 0 0 0.0013535696371 
0.0015736183943 0.0013442018408 0.00078318953826 6.3336513961e-05 -0.00063241439632 -0.0011467645581 -0.0013751330315 -0.0012826098569 -0.00090936043876 
-0.0003637291209 0.00019687860847 0.00059687181681 0.00068545269677 0 0 0.0029811461624 0.0041506356331 0.0048683372506 
0.0052076654291 0.0052794199384 0.0051999522276 0.0050676159079 0.0049460399763 0.0048541131867 0.0047630530686 0.0046009476156 0.0042650887512 
0.003642665123 0.0026413925653 0 0 0.0051264921038 0.0076634415208 0.009851823013 0.01167481259 0.013109714697 
0.0141275725 0.014698258441 0.014796991236 0.014409488625 0.013534178161 0.012181102698 0.01036841547 0.0081186986568 0.0054587939141 
0 0 0.0075424388962 0.011666990495 0.015604637762 0.019224727622 0.022332329507 0.024709772424 0.026159771447 
0.026542620813 0.025801242419 0.023970039269 0.021166218737 0.017565168585 0.013364208843 0.0087412257377 0 0 
0.0099073239654 0.015606032648 0.021295812966 0.0267297134 0.031534831552 0.035297742991 0.037647513956 0.038325025638 0.037228817475 
0.034430833675 0.03015972779 0.024754016848 0.018591598372 0.012005196181 0 0 0.011888646979 0.018914530102 
0.026089010148 0.033065755822 0.039318825424 0.044266065222 0.047386704878 0.048318546319 0.046921826742 0.043300915415 0.037780626117 
0.030840055584 0.023012382851 0.014762924579 0 0 0.013200904038 0.021109246651 0.029274174428 0.037282745279 
0.044505989054 0.050247956205 0.053886728132 0.054990486114 0.053393581843 0.049222255787 0.042866194532 0.03489926416 0.025959175945 
0.016600270106 0 0 0.013652511206 0.02186685853 0.030377584204 0.038748297521 0.046313410031 0.052336356758 
0.05615902985 0.057324658339 0.055658284831 0.051293929768 0.044644421358 0.036317391858 0.026987694296 0.017241141511 0 
0 0.013176419755 0.021074684421 0.029234840482 0.03724374748 0.044471133745 0.050219125178 0.053863839977 0.054971983853 
0.053377268015 0.049206226011 0.042849604117 0.034882702148 0.025944518965 0.016590040752 0 0 0.011840467354 
0.018848079703 0.026016252436 0.032997930057 0.039263886356 0.044227297358 0.047362716219 0.048304480906 0.046911374117 0.04328854492 
0.037763436631 0.030818712287 0.022990820876 0.014746839347 0 0 0.0098358777504 0.015511831839 0.021200754463 
0.026653632671 0.031490680018 0.035289153977 0.037669018436 0.038364542387 0.037271610314 0.034463881964 0.030175388723 0.024751978278 
0.018578452925 0.011991549142 0 0 0.0074449171941 0.011547568214 0.015501741453 0.019171649178 0.022348715667 
0.024797734484 0.026304751704 0.026718202422 0.025976466838 0.024117435102 0.021268632278 0.017619632972 0.013381535722 0.0087408427813 
0 0 0.0049907813549 0.0075132059979 0.009754747964 0.011686609847 0.013259796286 0.014413322746 0.015087461041 
0.015236791581 0.0148394655 0.013900604865 0.012449294771 0.010530209837 0.0081926213069 0.0054814378327 0 0 
0.0027732457732 0.0039427594326 0.0047815451696 0.0053357853615 0.0056666507657 0.0058333594569 0.0058829200594 0.0058438158229 0.0057225073928 
0.0055024535901 0.0051457512527 0.0045978457142 0.00379642293 0.0026869419951 0 0 0 0 
0 0 0 0 0 0 0 0 0 
0 0 0 0 
