# vtk DataFile Version 5.1
vtk output
ASCII
DATASET STRUCTURED_POINTS
DIMENSIONS 16 16 1
SPACING 1 1 1
ORIGIN 0 0 0
POINT_DATA 256
SCALARS scalars double
LOOKUP_TABLE default
0 0 0 0 0 0 0 0 0 
0 0 0 0 0 0 0 0 -0.0042339902366 
-0.0022694992151 0.0019988422583 0.0076411763495 0.013599204673 0.018830744701 0.022459670139 0.023904290873 0.02296308578 0.019843979888 
0.01513210155 0.0097002220549 0.0045747115152 0.00077721378704 0 0 -0.0050056735893 0.0053529099406 0.022799729378 
0.044288628264 0.066256178397 0.085155905698 0.097990714023 0.10276369217 0.098778800726 0.08674538287 0.068669964313 0.047550672457 
0.026918706408 0.010292563604 0 0 -0.0054074681586 0.017254513195 0.053671174076 0.097805932181 0.14256510604 
0.18087333388 0.20674394156 0.21618468654 0.2078021771 0.18301313487 0.14582988202 0.10225153823 0.059351232417 0.024193520409 
0 0 -0.0056667196294 0.031393214649 0.089881848933 0.16029585818 0.23146311589 0.29223511943 0.33317537006 
0.34798927741 0.33447902287 0.2948783304 0.23551597527 0.16585853013 0.097076563325 0.040349696991 0 0 
-0.0058636962209 0.045538857547 0.12596627043 0.2224707679 0.31983741129 0.40288344147 0.45875652683 0.47888276161 0.46026824818 
0.40595628656 0.32457062303 0.22901426738 0.13452186889 0.056362014621 0 0 -0.0060070874267 0.057533502894 
0.15650742676 0.27505467975 0.39454702036 0.49639760574 0.56487260246 0.58947563553 0.56654161446 0.49979722778 0.39980304342 
0.28236281858 0.1661434631 0.069870311527 0 0 -0.0060775132008 0.065575718385 0.17693220388 0.31018818131 
0.44443931052 0.55882978267 0.63570555422 0.66328933465 0.63746901513 0.56242700322 0.45001505714 0.31797095162 0.187250702 
0.078886434712 0 0 -0.0060530641036 0.068471422603 0.18419161092 0.32262114336 0.46205753271 0.58084993897 
0.66067180357 0.68929740183 0.66245832123 0.5844968906 0.4677175252 0.3305360636 0.19471139861 0.082085341251 0 
0 -0.0059227175825 0.0658049678 0.17721755367 0.31051039313 0.44478104938 0.55917718117 0.63604849281 0.66362067569 
0.63778319103 0.56271842987 0.4502768466 0.31819433648 0.18742544506 0.079002262942 0 0 -0.0056897724234 
0.058000543379 0.15708414742 0.27570008976 0.39522532468 0.49708141091 0.56554322505 0.59012112503 0.5671533907 0.50036635661 
0.40031717956 0.28280472942 0.16649178467 0.070102721415 0 0 -0.005365485847 0.046263866629 0.12684852711 
0.22344190714 0.32084084267 0.40387920011 0.45972097014 0.4798043835 0.46114119335 0.40677329184 0.32531712339 0.22966525994 
0.13504278227 0.056714187115 0 0 -0.0049514035203 0.032415370898 0.09109682749 0.16159802727 0.23277151636 
0.29349946235 0.3343738075 0.34912025741 0.33554969656 0.29589213024 0.23646202874 0.16670543619 0.097772703703 0.040831613128 
0 0 -0.0044060162784 0.018646392933 0.055267960034 0.099449172849 0.14414510355 0.18233438754 0.20807782177 
0.2174157923 0.20896779962 0.18414253797 0.14692607587 0.1032795167 0.06023611169 0.024831658117 0 0 
-0.0035845494849 0.0072470055418 0.02486373672 0.04629009791 0.068053285593 0.086697562309 0.099302205158 0.10392128333 0.099877484958 
0.087864843805 0.069844279454 0.048747144597 0.028030653474 0.011150569003 0 0 0 0 
0 0 0 0 0 0 0 0 0 
0 0 0 0 
