# vtk DataFile Version 5.1
vtk output
ASCII
DATASET STRUCTURED_POINTS
DIMENSIONS 16 16 1
SPACING 1 1 1
ORIGIN 0 0 0
POINT_DATA 256
SCALARS scalars double
LOOKUP_TABLE default
0 0 0 0 0 0 0 0 0 
0 0 0 0 0 0 0 0 0.00084660416199 
0.0008044085152 0.00019513879038 -0.00084307509357 -0.0020697183824 -0.0032168727406 -0.0040484723881 -0.0044047076888 -0.004229676443 -0.0035801316801 
-0.0026141929807 -0.0015601786874 -0.00066626821001 -0.00013011788587 0 0 0.0030327368 0.005228449405 0.0073579230556 
0.0092668958034 0.0108427481 0.011997038827 0.012662061802 0.012793551005 0.012374569227 0.011417952311 0.0099667599135 0.008094284387 
0.0059075721627 0.0035614549855 0 0 0.0062119483879 0.011843032136 0.018298252933 0.02495371112 0.031104403586 
0.036053524201 0.039210853679 0.040180031161 0.038818378988 0.035258761442 0.029890047088 0.023300326143 0.016194252067 0.009301879947 
0 0 0.0099482786501 0.019675137758 0.031328287848 0.043718863022 0.055419214644 0.064985834061 0.071185291941 
0.073187177008 0.070693609142 0.063985105351 0.053875811048 0.041585404071 0.028548209326 0.016190200293 0 0 
0.013690414068 0.027536985396 0.044432780253 0.062619686806 0.079937626734 0.094184142603 0.10347107811 0.10652582728 0.10289221926 
0.093000890032 0.078098521638 0.060046493446 0.041018939061 0.023144793115 0 0 0.016873313045 0.034226468602 
0.05558894647 0.078718305494 0.10082950599 0.11907154471 0.13099630824 0.13495279389 0.1303492477 0.11774453506 0.098755010073 
0.075790226207 0.051655657877 0.029079099836 0 0 0.019013349975 0.038720142642 0.063080770823 0.089528354327 
0.11485848236 0.13578453128 0.14948203915 0.15404555959 0.14879206973 0.13436647872 0.11263340458 0.086370463926 0.058806792821 
0.033071675785 0 0 0.019786476869 0.040333924343 0.065763228337 0.093392811549 0.11986951475 0.14175188585 
0.15608150676 0.1608622449 0.15537843104 0.14030542466 0.11759598216 0.090158371663 0.061371976585 0.0345082596 0 
0 0.019079471028 0.038829343221 0.063237987192 0.089736193452 0.11511510526 0.13608255752 0.1498087365 0.1543842289 
0.14912425055 0.13467442707 0.11290224846 0.086589532035 0.058969833656 0.033176012846 0 0 0.017007250695 
0.034450096738 0.055914590162 0.079153076061 0.10137039868 0.11970295667 0.13169052409 0.13567318682 0.13105532608 0.11839759022 
0.09932302001 0.07625085749 0.051996683858 0.029296287968 0 0 0.013893509473 0.027883223736 0.044947727638 
0.063319473551 0.080819738696 0.095222942202 0.10461887116 0.10771887659 0.10406006772 0.094076738519 0.079028232265 0.060794079033 
0.041567177643 0.023490882183 0 0 0.010216545155 0.020149573279 0.032059219253 0.044740211887 0.056732254795 
0.066551778768 0.072927596919 0.075002224624 0.072466898662 0.065609166787 0.055265783026 0.042688597321 0.029345074957 0.016686048825 
0 0 0.006526029584 0.012437413845 0.019269716725 0.026369956967 0.032976464119 0.038324318205 0.041760149373 
0.042843040639 0.041413149765 0.037616301786 0.031880703416 0.024850359803 0.017287908867 0.0099667012055 0 0 
0.0033381550879 0.0058989772715 0.0085771429424 0.011164214216 0.013448878528 0.015227893278 0.016329303478 0.016636525098 0.016105844604 
0.014773123457 0.012748547397 0.010201397576 0.0073402539823 0.0043981208859 0 0 0 0 
0 0 0 0 0 0 0 0 0 
0 0 0 0 
