# vtk DataFile Version 5.1
vtk output
ASCII
DATASET STRUCTURED_POINTS
DIMENSIONS 16 16 1
SPACING 1 1 1
ORIGIN 0 0 0
POINT_DATA 256
SCALARS scalars double
LOOKUP_TABLE default
0 0 0 0 0 0 0 0 0 
0 0 0 0 0 0 0 0 -0.0074407631777 
-0.0064271353016 -0.0035426888626 0.00037507818461 0.0045305080824 0.0082045973041 0.010818229252 0.011996044411 0.011611757635 0.0098032918513 
0.006953421549 0.0036388298124 0.00055737964637 -0.0015501994386 0 0 -0.0066371934056 0.0070397941224 0.028809086151 
0.054998064577 0.081441605055 0.10404679318 0.11937488036 0.12514190047 0.12055511779 0.1064302219 0.085069513482 0.059919119507 
0.035057986794 0.014597541523 0 0 -0.0041001161563 0.028407940424 0.077884314226 0.13658601062 0.1954879527 
0.24561587163 0.27938630086 0.29174610777 0.28093490376 0.24875205637 0.20028636081 0.14314889251 0.086325455725 0.038822430188 
0 0 -0.00061608662806 0.054074335103 0.13602810646 0.23276241335 0.32959262373 0.41185660627 0.46713900845 
0.48715743544 0.46902304711 0.4156831562 0.33547802491 0.24087897263 0.14659937336 0.067364934632 0 0 
0.0030893836503 0.079965726089 0.19432532564 0.32896821718 0.46358054387 0.57784277087 0.6545330116 0.68215630789 0.65670137294 
0.58225829349 0.47040362111 0.33844660965 0.20680338697 0.095898114811 0 0 0.0063713484484 0.10208486511 
0.24391389043 0.41066660747 0.57726784998 0.71861346007 0.81341653396 0.84746514989 0.8157988882 0.7234748102 0.5848074953 
0.42119950447 0.25789283007 0.12013583848 0 0 0.0087149211399 0.11707547841 0.27730615358 0.46554810603 
0.65354607419 0.81300048994 0.91990964568 0.95824710877 0.92241865721 0.81812735796 0.66151678282 0.4767238607 0.29221458569 
0.13646089842 0 0 0.009788104382 0.12270907691 0.28951306837 0.48540064506 0.6809950812 0.84686980374 
0.9580654667 0.99791550397 0.96060209139 0.85205623237 0.68906678329 0.49673528133 0.30466491852 0.14246459862 0 
0 0.0094799591194 0.11821241208 0.27879650177 0.46735946944 0.65562884246 0.8152869361 0.92231605304 0.96067878933 
0.92477702035 0.82031771528 0.66345540735 0.47834298352 0.29346449921 0.13730908315 0 0 0.0079133612085 
0.10438165476 0.24693280779 0.41434602027 0.58150924929 0.72327900054 0.8183334367 0.85243660039 0.82061951521 0.72794780791 
0.58876008605 0.42449378235 0.26043005912 0.12185391025 0 0 0.0054283920912 0.083463992729 0.19894623708 
0.33462856101 0.47013498755 0.58507840929 0.66217643088 0.68989231931 0.66419990023 0.58920418187 0.47652352381 0.34352764684 
0.21069995104 0.098525944611 0 0 0.0025390368651 0.05882435724 0.14235227481 0.2405711315 0.33869862015 
0.42196402075 0.4778539901 0.49801830286 0.47954392059 0.42540241437 0.34400202527 0.24791222455 0.15195475455 0.070951620805 
0 0 -0.00012772105469 0.034449025261 0.086026039696 0.1467608774 0.20747693237 0.25902839517 0.2936763817 
0.30626013613 0.29498084195 0.26167629269 0.21154324636 0.15234895506 0.093251397775 0.043407353041 0 0 
-0.0018951232766 0.014363588749 0.038867671674 0.067797854008 0.096750968933 0.121362805 0.13794949078 0.14405782289 0.13883459933 
0.12315557059 0.099492728631 0.071539227944 0.043648442864 0.020171975089 0 0 0 0 
0 0 0 0 0 0 0 0 0 
0 0 0 0 
