# vtk DataFile Version 5.1
vtk output
ASCII
DATASET STRUCTURED_POINTS
DIMENSIONS 16 16 1
SPACING 1 1 1
ORIGIN 0 0 0
POINT_DATA 256
SCALARS scalars double
LOOKUP_TABLE default
0 0 0 0 0 0 0 0 0 
0 0 0 0 0 0 0 0 -0.003466268965 
-0.0012191129005 0.0027680544276 0.0076326443886 0.012533312105 0.016697216641 0.019495973114 0.020520743076 0.019635960856 0.016999147326 
0.013042457998 0.0084200666657 0.0039340714232 0.00046135083558 0 0 -0.0012775640979 0.013674126139 0.036466138484 
0.063417400432 0.09035634638 0.11318359118 0.12845400312 0.13387946883 0.12866849106 0.11364665666 0.091138103303 0.06462695821 
0.038253580962 0.016227714856 0 0 0.0026129059014 0.036354125484 0.086733561904 0.14600668195 0.20516900987 
0.25527494091 0.28876712181 0.30061016497 0.28905137143 0.25588927959 0.2062077278 0.14761629615 0.089114313603 0.03975252994 
0 0 0.0073578028064 0.063161178335 0.14585342755 0.24295014762 0.33980659071 0.42181649756 0.47661615186 
0.49595763296 0.4769632604 0.42256778596 0.34107983927 0.24492946358 0.14879297714 0.067380015138 0 0 
0.012135573628 0.089949757611 0.20485244474 0.33963879495 0.47404904728 0.58784094325 0.66386444003 0.69067190298 0.66426474171 
0.58870879214 0.47552387422 0.34194048074 0.20828920477 0.094919201004 0 0 0.01619360993 0.11264651011 
0.25481524388 0.42149990403 0.58769030709 0.72837621549 0.82235823556 0.85548150821 0.82279890022 0.72933302511 0.58932045135 
0.4240532658 0.25864675928 0.1182240947 0 0 0.018920728311 0.12782820866 0.28820954254 0.47619711363 
0.6636093822 0.8222531874 0.92822590554 0.96556534561 0.92869106264 0.82326431672 0.66533529167 0.47890760979 0.2922911467 
0.13379718824 0 0 0.019919527385 0.13322120978 0.3000163669 0.49550023052 0.69037728096 0.85533626172 
0.96552487466 1.0043459207 0.96599636987 0.85636175816 0.69212933587 0.49825524523 0.30417161106 0.13930982195 0 
0 0.019058346227 0.12803888841 0.2884884458 0.47653731743 0.66400133151 0.82268431593 0.92868074815 0.96602625371 
0.92913940085 0.82368185864 0.66570548347 0.47921643756 0.29252751205 0.13395291335 0 0 0.016490471615 
0.11310134834 0.25541791534 0.42223599211 0.58853964373 0.72931178887 0.82334633047 0.85648333611 0.82377339645 0.73024011562 
0.5901239802 0.42472293266 0.25915881798 0.11856111879 0 0 0.012636329863 0.090717649117 0.20587114799 
0.34088557688 0.47549127727 0.58943340694 0.66554929522 0.69238170364 0.6659277885 0.59025538134 0.47689182615 0.3430786165 
0.20915819799 0.095490393856 0 0 0.0081327314786 0.064349467909 0.14743148273 0.24488680605 0.3420549023 
0.42430751592 0.47925831919 0.49864217343 0.47957391629 0.42499215334 0.34321928438 0.2467050514 0.15014608432 0.068268467467 
0 0 0.0037617487113 0.038110855697 0.089066778903 0.14887996434 0.20852110522 0.25900625566 0.2927381073 
0.30465103626 0.29297953 0.25952943799 0.20940941729 0.15026402692 0.091127344168 0.04107459516 0 0 
0.00038160662958 0.016186024569 0.039795554023 0.067535792538 0.095193952647 0.11860262539 0.13424645449 0.13978505909 0.13440545196 
0.11894680767 0.095777457808 0.068443678211 0.041146776388 0.01813427885 0 0 0 0 
0 0 0 0 0 0 0 0 0 
0 0 0 0 
