# vtk DataFile Version 5.1
vtk output
ASCII
DATASET STRUCTURED_POINTS
DIMENSIONS 16 16 1
SPACING 1 1 1
ORIGIN 0 0 0
POINT_DATA 256
SCALARS scalars double
LOOKUP_TABLE default
0 0 0 0 0 0 0 0 0 
0 0 0 0 0 0 0 0 -0.0071298549985 
-0.0064431969268 -0.0035080788478 0.00076223755762 0.0054246525998 0.0095889416708 0.012521908273 0.013742685684 0.013088291481 0.010736627607 
0.007182485627 0.0031707522858 -0.00040032575289 -0.002583273897 0 0 -0.0075725367914 0.0044751515998 0.025042872938 
0.050419346155 0.076352871666 0.098647858152 0.11377257366 0.11937913047 0.11465237211 0.1004322715 0.079090274666 0.054178551591 
0.029906730259 0.010527879535 0 0 -0.006567339121 0.022749356328 0.069497454343 0.12594148348 0.18305388988 
0.23185518569 0.26475689747 0.27670197028 0.2659274783 0.23423235527 0.18670873788 0.13097757377 0.07604463625 0.030949835696 
0 0 -0.0047381637705 0.045081850229 0.12265797653 0.21556148916 0.30920013232 0.38901887962 0.44269950182 
0.46202538262 0.44412778997 0.39192364595 0.31367791187 0.22175695202 0.13076208294 0.055325829679 0 0 
-0.0026239083327 0.067772528512 0.176170857 0.30546732423 0.43553294555 0.54626640855 0.62064446596 0.64730726108 0.622285884 
0.54960956056 0.4407002177 0.3126466266 0.18562065485 0.079828303679 0 0 -0.00068690380215 0.087201515228 
0.22174483632 0.38188151737 0.54279911653 0.67970599652 0.77160030422 0.80446426931 0.77339872382 0.68337365753 0.54848107527 
0.38980431165 0.23222855432 0.10067860414 0 0 0.00071089850337 0.10033359648 0.25237914683 0.43314207345 
0.61468302024 0.76907955153 0.87267432516 0.9096756445 0.87456354568 0.77293607339 0.62066766351 0.44150846977 0.26349096138 
0.11469212736 0 0 0.0013392131498 0.10515482294 0.26340964626 0.45146790442 0.64029097294 0.80085620536 
0.90857324556 0.94702719398 0.91048006753 0.80475071855 0.64634007739 0.45993571984 0.27467670665 0.11974891588 0 
0 0.0011237038606 0.10096730629 0.25320976249 0.43413920004 0.61581101455 0.77029848467 0.87394099749 0.91094483061 
0.87578949711 0.77407417723 0.62167609933 0.44234973961 0.26413326306 0.11511063834 0 0 0.00015534838746 
0.088493600878 0.22343730259 0.3839123745 0.54509606632 0.68218812437 0.77417993327 0.80704942086 0.7758962215 0.68569259766 
0.55053626285 0.39151934903 0.23353852217 0.1015325649 0 0 -0.0013175209966 0.069773822595 0.17878889256 
0.30860617729 0.43908186775 0.55010156037 0.62463116907 0.65130363277 0.62614781213 0.55319637626 0.44388021568 0.31530176995 
0.18765033743 0.081152769361 0 0 -0.0029114566247 0.04787270761 0.12630022797 0.21992215622 0.31412811589 
0.39434503185 0.44823841753 0.46758024098 0.44949782624 0.3969128581 0.31810331252 0.22545501061 0.13359297599 0.057176719445 
0 0 -0.0041351496151 0.02644570063 0.074300793102 0.1316793921 0.18953459779 0.23886226484 0.27204926507 
0.28402034069 0.27300569649 0.24081079258 0.19254660273 0.13586146021 0.07979205043 0.033409329891 0 0 
-0.0044030316802 0.0092385605818 0.031185064023 0.057732087387 0.08460867596 0.10758278217 0.12308329567 0.12873254696 0.12370355852 
0.10884565547 0.086558632364 0.060434896408 0.034725494936 0.013715002828 0 0 0 0 
0 0 0 0 0 0 0 0 0 
0 0 0 0 
