# vtk DataFile Version 5.1
vtk output
ASCII
DATASET STRUCTURED_POINTS
DIMENSIONS 16 16 1
SPACING 1 1 1
ORIGIN 0 0 0
POINT_DATA 256
SCALARS scalars double
LOOKUP_TABLE default
0 0 0 0 0 0 0 0 0 
0 0 0 0 0 0 0 0 -0.0053384719762 
-0.0039068548888 -0.00048160154268 0.004054638741 0.0088142527089 0.012969033112 0.015840171894 0.016983209068 0.016247267612 0.01379614871 
0.010087105144 0.00581156927 0.0018107769879 -0.0010106963684 0 0 -0.0043242995832 0.0093124782052 0.031192463309 
0.057598204777 0.084286027213 0.10707290967 0.12243851405 0.12804192394 0.12306897309 0.10835443498 0.086259511415 0.060323917533 
0.034747907989 0.013787421606 0 0 -0.0016098864832 0.030349949496 0.079499870769 0.13803737663 0.19685786818 
0.24690346059 0.28051727947 0.29259460747 0.28135320629 0.24860396162 0.19947998213 0.14166551347 0.084242672795 0.036331814669 
0 0 0.0020294190706 0.055641226495 0.13683708757 0.23304855601 0.32950116831 0.41144776486 0.46640149943 
0.48602938191 0.46741787999 0.41351753399 0.33269865386 0.23748561525 0.14266216358 0.06303504665 0 0 
0.0058546238027 0.081144725015 0.19434597792 0.32814234795 0.46211576793 0.57585646914 0.65206980392 0.67920898014 0.6532340936 
0.57823020575 0.46579055942 0.3332587413 0.20109690965 0.089779545965 0 0 0.0091942066237 0.10288731758 
0.24321887843 0.4088538088 0.57459941941 0.71525600312 0.80946211993 0.84295245773 0.81073432158 0.71785255805 0.57862701034 
0.41447866194 0.25067501495 0.11248926745 0 0 0.011504948953 0.1175291311 0.27601182634 0.46293330622 
0.64991290438 0.80855318605 0.91477787121 0.95250688423 0.91611151427 0.81127741126 0.65414481379 0.46885712037 0.2838907557 
0.1277244134 0 0 0.012433695662 0.12285029129 0.28776200347 0.48220473584 0.67667706606 0.84165761407 
0.95211594291 0.99133417174 0.95346007763 0.84440458291 0.68094784426 0.48819032319 0.29573672356 0.13319322071 0 
0 0.011861650255 0.11807880156 0.27673597308 0.46380767516 0.65090782893 0.80963401233 0.91590577792 0.95364025106 
0.91720776419 0.81229507521 0.65504549968 0.46960712717 0.28446223299 0.12809616136 0 0 0.0099205297649 
0.10400624494 0.24469282552 0.41063384587 0.57662571397 0.7174583581 0.81176146196 0.84526364815 0.81297009021 0.71992794726 
0.58046357024 0.4160077779 0.25184013455 0.11324729649 0 0 0.0069771332916 0.082872724082 0.19662150027 
0.33089119262 0.46524724573 0.57926321146 0.65562955153 0.68278903486 0.65669794956 0.58144512432 0.46863460347 0.33562604835 
0.20290072164 0.090953588532 0 0 0.0035902027943 0.058039726242 0.13999277774 0.23686196873 0.33385070785 
0.41618688951 0.47136013402 0.4910204877 0.47224800579 0.4179989903 0.33666059463 0.24078173512 0.14517394657 0.064671565216 
0 0 0.00045126428725 0.033504339309 0.083641309185 0.14304393971 0.20257952593 0.2531527978 0.28706961105 
0.29919782861 0.28774459527 0.25452963868 0.20471230682 0.14601426043 0.087557511949 0.038496951201 0 0 
-0.0016688349284 0.013335493584 0.036449688423 0.063957083338 0.091576898543 0.11506700599 0.13084643929 0.13652953707 0.13128469077 
0.11596063911 0.092960377401 0.065882520505 0.038987091184 0.016572496539 0 0 0 0 
0 0 0 0 0 0 0 0 0 
0 0 0 0 
