# vtk DataFile Version 5.1
vtk output
ASCII
DATASET STRUCTURED_POINTS
DIMENSIONS 16 16 1
SPACING 1 1 1
ORIGIN 0 0 0
POINT_DATA 256
SCALARS scalars double
LOOKUP_TABLE default
0 0 0 0 0 0 0 0 0 
0 0 0 0 0 0 0 0 -0.0045828400153 
-0.0028459101102 0.00077850974412 0.0054213278642 0.010217386104 0.014363454206 0.017202922355 0.0183066688 0.01752968725 0.015031288021 
0.011254821308 0.0068711999185 0.0026990906621 -0.00037524812432 0 0 -0.0030296100246 0.01114043518 0.033390948447 
0.060024786025 0.086828105008 0.10965001705 0.12499840866 0.13055178974 0.12550344646 0.1106825006 0.088432479719 0.06226667376 
0.036355466006 0.014928655018 0 0 0.00028416813356 0.033024705111 0.08273635305 0.14164479377 0.20068116975 
0.25082422244 0.28444856661 0.29647094049 0.28511726731 0.25219206856 0.20280854243 0.1446206136 0.086674713448 0.038056778346 
0 0 0.0045369048674 0.059177284636 0.14112809256 0.23785812707 0.3346339224 0.41674789741 0.4717462674 
0.49131822372 0.47255851461 0.41841081752 0.33722415577 0.24148978286 0.14595060339 0.065369945031 0 0 
0.0089281546872 0.08547169758 0.19960345347 0.3340538728 0.46845058668 0.5824254371 0.6587174572 0.68580203417 0.65964732364 
0.58433112507 0.47142448927 0.33823573562 0.20518157628 0.092684145785 0 0 0.012722360526 0.10784690685 
0.24924768745 0.41564415591 0.58189318049 0.72283806669 0.8171512086 0.85058916735 0.8181669593 0.7249218366 0.58515082506 
0.42023801711 0.25540168614 0.11585501815 0 0 0.015321174996 0.12288758077 0.28252538772 0.47027498158 
0.65780787295 0.81677050763 0.92312042301 0.96079909455 0.92418520862 0.8189565658 0.66123017265 0.47511145626 0.28902504123 
0.13138434322 0 0 0.016334533007 0.12832345465 0.29441289269 0.4897010835 0.68473983161 0.85005196976 
0.96064083468 0.99980991657 0.96171420947 0.8522566343 0.68819390785 0.49458805746 0.3009909501 0.13694142358 0 
0 0.015630975134 0.12336539088 0.28315626726 0.47103896663 0.65867995888 0.81772078207 0.92411469931 0.96180019678 
0.9251548048 0.81985725286 0.66202744606 0.47577526351 0.28953079801 0.1317135164 0 0 0.013355757578 
0.10882372658 0.25053761109 0.41720692844 0.58367826652 0.72478458703 0.81918907259 0.8526417594 0.82015511144 0.72676837359 
0.58678481284 0.42159800068 0.25643762963 0.11652922933 0 0 0.009913007806 0.086989920309 0.20160847684 
0.33648481993 0.47123069106 0.58546090893 0.66189878832 0.68900837791 0.66275333641 0.58721485412 0.47397462727 0.34035684756 
0.20679670377 0.093735375648 0 0 0.0059160521355 0.061300539398 0.14393136297 0.24126051556 0.33853247242 
0.42101346029 0.47622438878 0.49583585889 0.47693517176 0.42247147868 0.34081094465 0.24446979588 0.14821862258 0.066846949875 
0 0 0.0021182983366 0.035838026622 0.086445992239 0.14615382704 0.20586321664 0.25651249523 0.29043558194 
0.30251899801 0.29097655247 0.25762163658 0.20759498544 0.1485897924 0.08969369784 0.040026585437 0 0 
-0.0006528066452 0.014750323555 0.038134371651 0.065802682662 0.093500038787 0.11701030266 0.13277459695 0.13842206574 0.13312641936 
0.11773142136 0.094625503784 0.067385349353 0.040245346386 0.017479618583 0 0 0 0 
0 0 0 0 0 0 0 0 0 
0 0 0 0 
