# vtk DataFile Version 5.1
vtk output
ASCII
DATASET STRUCTURED_POINTS
DIMENSIONS 16 16 1
SPACING 1 1 1
ORIGIN 0 0 0
POINT_DATA 256
SCALARS scalars double
LOOKUP_TABLE default
0 0 0 0 0 0 0 0 0 
0 0 0 0 0 0 0 0 -0.0077772479246 
-0.0073953786671 -0.004684754299 -0.00056202400838 0.0040165878291 0.0081445830586 0.011074031124 0.012314109569 0.011698562461 0.0094092416968 
0.0059512305319 0.0020836705708 -0.0012810085848 -0.0031873253339 0 0 -0.008800586849 0.0024907957434 0.02232918399 
0.047042395588 0.072417448742 0.094295092308 0.10917386461 0.11472625244 0.11014476028 0.096263182237 0.075433703273 0.051178468527 
0.027669347966 0.0091162850073 0 0 -0.0084923700389 0.019473222935 0.06479456328 0.11983961522 0.17570107788 
0.22351979915 0.25580987685 0.26758345945 0.2571028475 0.22614440035 0.17973343733 0.12539009693 0.072000396845 0.028482497698 
0 0 -0.0074093473615 0.040394412614 0.11574841977 0.2064031216 0.29798396751 0.37615728511 0.42879461791 
0.44780751908 0.43037370379 0.37936772775 0.30293039276 0.21324212129 0.12468634453 0.051680695916 0 0 
-0.0060044754614 0.061728470425 0.16712317108 0.29333056009 0.42053723137 0.52896500502 0.60186840347 0.62807529304 0.60368466139 
0.53266340785 0.42625146881 0.30126591924 0.17756213501 0.075038071969 0 0 -0.0046512168217 0.08003371129 
0.21091775586 0.36725792434 0.52464045449 0.65868341734 0.74873765617 0.78102386245 0.75072905831 0.66274393111 0.5309292866 
0.37602383945 0.22251254236 0.094933231278 0 0 -0.003634886614 0.092427761039 0.2403793491 0.41687553331 
0.59443120191 0.7455915957 0.8471022782 0.88344403565 0.84919537546 0.74986368582 0.60105925865 0.42613882141 0.25267860881 
0.10831595414 0 0 -0.003133963521 0.096999619 0.25101038615 0.43463857299 0.61931934494 0.77651819219 
0.88206542437 0.9198306809 0.88417882272 0.78083405987 0.6260215651 0.44401828955 0.26348736073 0.11315652585 0 
0 -0.0032041161312 0.093088195937 0.24124349847 0.41791086881 0.59560007464 0.74685240419 0.84841054985 0.88475360691 
0.85045973996 0.75103746995 0.60209973355 0.4270073816 0.25334221626 0.10874860318 0 0 -0.0037716692999 
0.081381096647 0.21267929043 0.36936704713 0.52702065651 0.66125037883 0.75140122566 0.78369034626 0.7533039539 0.6651349648 
0.5330495041 0.3777945631 0.22386620508 0.095816299178 0 0 -0.0046384731339 0.06381766641 0.16985011011 
0.29659162444 0.42421482385 0.53293003648 0.6059827035 0.63219487144 0.60766395763 0.53636013235 0.42953145016 0.30400752678 
0.17966029414 0.076408468617 0 0 -0.0054954962179 0.043312735265 0.11954668332 0.21093629557 0.30309073089 
0.38166125742 0.43450627777 0.45352829147 0.43590210531 0.38450657787 0.30749383283 0.21706147842 0.12761473724 0.053597679224 
0 0 -0.0059369476866 0.023347914662 0.069812486586 0.12580985282 0.18241713177 0.23075592566 0.26332103491 
0.2751103167 0.26438078289 0.23291430911 0.18575185633 0.13043659919 0.075881497927 0.031033999453 0 0 
-0.0054576756091 0.0075017014105 0.028762242363 0.054661095597 0.080973458649 0.10351315962 0.11874834804 0.1243280751 0.11943541024 
0.10491153356 0.083131248611 0.057648974937 0.032670146777 0.012431432605 0 0 0 0 
0 0 0 0 0 0 0 0 0 
0 0 0 0 
