# vtk DataFile Version 5.1
vtk output
ASCII
DATASET STRUCTURED_POINTS
DIMENSIONS 16 16 1
SPACING 1 1 1
ORIGIN 0 0 0
POINT_DATA 256
SCALARS scalars double
LOOKUP_TABLE default
0 0 0 0 0 0 0 0 0 
0 0 0 0 0 0 0 0 -0.0062965240915 
-0.0052486458447 -0.0020661584185 0.0023487808633 0.0070761136377 0.011252032507 0.014166696016 0.015354904289 0.014658861251 0.012250347408 
0.0086079693345 0.0044537379963 0.000661928853 -0.0018369075616 0 0 -0.0060372000935 0.0068277643702 0.028114982093 
0.05409462657 0.080501038663 0.10312708497 0.11843169573 0.12406046965 0.11919527861 0.10467708292 0.082882310506 0.057372004547 
0.032368919592 0.012145362796 0 0 -0.0042010234721 0.026516133041 0.074622059884 0.13231620424 0.19049557604 
0.24010476335 0.27349006514 0.28554993148 0.27450459488 0.24216634943 0.19366867143 0.13669534916 0.08032715968 0.033681132024 
0 0 -0.0014879389828 0.050375602737 0.13003011578 0.22492667073 0.32032299617 0.40150934768 0.45603361048 
0.4755879481 0.45726973036 0.40402448016 0.32420316407 0.23030103054 0.13706955774 0.059287557584 0 0 
0.0014638390401 0.074524777282 0.18570544684 0.31772689899 0.45023483246 0.56289328367 0.63847531529 0.66548229354 0.63989403493 
0.56578385271 0.45470505484 0.32394226495 0.19389343572 0.084980185393 0 0 0.0040885496859 0.09515708041 
0.23307113947 0.39654751101 0.56048436576 0.69978721091 0.79319085552 0.82649808062 0.79474356627 0.7029546012 0.56539330576 
0.40339597876 0.24213850724 0.10682006882 0 0 0.0059347661298 0.10907662453 0.26488172634 0.44939196932 
0.63433573398 0.79144198754 0.89674999798 0.93426128605 0.89837971816 0.79476948326 0.63950110509 0.45661597637 0.27448050867 
0.12148528622 0 0 0.0067116063164 0.1141610011 0.27630836524 0.46825452451 0.66061350361 0.82399787729 
0.93349968421 0.97248751417 0.93514362456 0.82735611461 0.6658311724 0.47556111784 0.28603416957 0.12676352442 0 
0 0.0063228330759 0.10967338463 0.26566570964 0.45033557691 0.6354060049 0.79260130708 0.89795702513 0.93547226688 
0.89955016314 0.79585603327 0.64046335005 0.45741803536 0.27509230769 0.12188361445 0 0 0.0048795552798 
0.096372852685 0.23466769475 0.39846882698 0.5626637563 0.70214847008 0.79564994765 0.82896578762 0.79712901427 0.7051692248 
0.56735467327 0.40503101552 0.24338597214 0.10763253451 0 0 0.0026886088849 0.076405159077 0.18817263054 
0.32069494119 0.45360206125 0.5665431121 0.64227828643 0.66930013618 0.64358547318 0.56921123568 0.45774064423 0.3264732437 
0.19582533746 0.086239343231 0 0 0.0002200802166 0.052991956334 0.1334570661 0.22904674378 0.32499853267 
0.4065811811 0.46132269253 0.48090106145 0.46240849907 0.40879580872 0.32842890937 0.23382509078 0.13976166293 0.061044879874 
0 0 -0.0019355481886 0.029969870222 0.079130801224 0.13773107766 0.19664397932 0.24678311392 0.2804638695 
0.29256192775 0.28128880378 0.24846448459 0.19924498497 0.14134650364 0.083885271239 0.036011245603 0 0 
-0.0031004021 0.011257233667 0.033860595569 0.060983751621 0.088332986759 0.11165351668 0.12735437937 0.13304398565 0.12788960766 
0.11274385341 0.090018177872 0.063323136145 0.036932039267 0.015154216046 0 0 0 0 
0 0 0 0 0 0 0 0 0 
0 0 0 0 
