# vtk DataFile Version 5.1
vtk output
ASCII
DATASET STRUCTURED_POINTS
DIMENSIONS 16 16 1
SPACING 1 1 1
ORIGIN 0 0 0
POINT_DATA 256
SCALARS scalars double
LOOKUP_TABLE default
0 0 0 0 0 0 0 0 0 
0 0 0 0 0 0 0 0 -0.0057621817925 
-0.0044971927609 -0.0011753956072 0.0033113018166 0.0080604353421 0.012227633541 0.015120031589 0.016283776926 0.015564846781 0.013130630709 
0.0094480260376 0.005222316664 0.0013097953476 -0.0013728927308 0 0 -0.0050749532493 0.0082395990959 0.029883841035 
0.056131127834 0.082723863437 0.10546422751 0.1208192217 0.12643962813 0.12150869181 0.10686471211 0.084877923616 0.059100944394 
0.033748125094 0.013086901897 0 0 -0.0027385050235 0.028714615349 0.0774625615 0.13569544956 0.19429971963 
0.24420891284 0.27775935166 0.28984221969 0.27867441547 0.24606933244 0.19716567818 0.13965565483 0.082630431826 0.03521857863 
0 0 0.000503558166 0.053413016626 0.13402615091 0.22976959873 0.32586702822 0.40757164788 0.46239821098 
0.48201562599 0.46351190806 0.40983855582 0.32936645929 0.23462079373 0.14038715025 0.061475984794 0 0 
0.0039549410343 0.078357988544 0.19080376145 0.32397378722 0.45745567056 0.57084959965 0.64687156104 0.67398311126 0.6481484766 
0.57345199275 0.46148207336 0.32957542887 0.1981884035 0.08779453219 0 0 0.0069890196625 0.09964395934 
0.23907775511 0.40395494054 0.56909503765 0.7093166741 0.80327696095 0.83672459452 0.80467327932 0.71216566304 0.57351202762 
0.41011978339 0.24724397629 0.11015289962 0 0 0.0091015724731 0.11398954157 0.27148172864 0.4575593387 
0.64385832141 0.80200526188 0.90794782118 0.94562379383 0.90941242313 0.80499616707 0.64850249538 0.46405670106 0.28011827952 
0.12515839804 0 0 0.0099659080799 0.11921448094 0.28310526154 0.47667548753 0.67044190039 0.83490918093 
0.94507278823 0.98423412331 0.94654949609 0.83792629326 0.67513076061 0.48324364353 0.29185114595 0.13055103617 0 
0 0.0094728162257 0.11456109311 0.27223375546 0.45846607055 0.64488858139 0.80312301634 0.90911304939 0.94679383687 
0.91054375992 0.80604639844 0.64943225301 0.46483125102 0.28070873603 0.12554263638 0 0 0.0077452528505 
0.10080777285 0.24060869457 0.40580087207 0.57119299615 0.71159366747 0.80565155186 0.8391096493 0.80697973607 0.71430677917 
0.57540742527 0.41169874025 0.2484477664 0.11093644584 0 0 0.0051245355404 0.08015632472 0.19316803435 
0.32682451882 0.46069717574 0.57437023402 0.65054562926 0.67767516066 0.65171958958 0.57676697041 0.4644161631 0.33201949586 
0.20005214165 0.089008310341 0 0 0.0021317527244 0.055911524563 0.13730681271 0.23372490737 0.33036812602 
0.41246615787 0.46751175182 0.48715802943 0.46848712778 0.41445611708 0.33345195468 0.23802333491 0.14298286083 0.063168585438 
0 0 -0.00058443297261 0.032005523999 0.081772186747 0.14088992285 0.20021887967 0.25065789958 0.28450871247 
0.29663704598 0.28524998985 0.25216930694 0.20255840194 0.14414480989 0.086057766657 0.037459770643 0 0 
-0.0022924887573 0.012446624832 0.035363166261 0.062732564051 0.090263930631 0.11370517432 0.12946720373 0.13515925159 0.12994832775 
0.11468572784 0.091780636444 0.064840627593 0.03813596141 0.015974292815 0 0 0 0 
0 0 0 0 0 0 0 0 0 
0 0 0 0 
