# vtk DataFile Version 5.1
vtk output
ASCII
DATASET STRUCTURED_POINTS
DIMENSIONS 16 16 1
SPACING 1 1 1
ORIGIN 0 0 0
POINT_DATA 256
SCALARS scalars double
LOOKUP_TABLE default
0 0 0 0 0 0 0 0 0 
0 0 0 0 0 0 0 0 -0.0059881172849 
-0.0048137496801 -0.0015493059258 0.002908721121 0.0076502078945 0.011822372401 0.014725017852 0.015899393416 0.015189845575 0.012765654874 
0.0090987703167 0.0049017056552 0.0010385592426 -0.001567902313 0 0 -0.0054798091052 0.0076510050803 0.029153163656 
0.055297402752 0.08182127948 0.10452162257 0.11986083113 0.12548670246 0.1205816217 0.10598528986 0.084071352044 0.058397180256 
0.033182099278 0.012697059744 0 0 -0.0033519140394 0.027803979734 0.076300089709 0.13432771638 0.1927745429 
0.24257556591 0.27606860304 0.28814609048 0.27702569551 0.24452098209 0.19577026132 0.13846489891 0.081694887578 0.034587151035 
0 0 -0.00033003942881 0.052160038926 0.13240006669 0.22782251217 0.32366012313 0.40517644206 0.4598957071 
0.47949363323 0.46106112493 0.40754821115 0.32732037578 0.23289465752 0.1390475492 0.060581446278 0 0 
0.0029135585785 0.076780866525 0.18873650768 0.32147248721 0.45459356139 0.56771947454 0.64358402489 0.67066137088 0.64492084033 
0.57044358624 0.45880739701 0.32733326916 0.19646028647 0.086647432406 0 0 0.005777480142 0.097800905779 
0.23664754591 0.40099632497 0.56569083779 0.70557721941 0.79933758966 0.83273826252 0.80079996159 0.70856067477 0.57031555511 
0.40744977314 0.24519411493 0.10879681271 0 0 0.007779396309 0.11197335921 0.26881474813 0.45430174772 
0.64009902563 0.79786603539 0.90358031074 0.94120065894 0.90511464443 0.80099907315 0.64496325102 0.46110583816 0.27785737262 
0.1236652896 0 0 0.00860746932 0.11714138722 0.28036007104 0.47331861723 0.66656412085 0.83063604148 
0.94056145531 0.97966400019 0.94210878252 0.83379719014 0.67147622843 0.48019845362 0.28951945874 0.12901200809 0 
0 0.0081578722768 0.11255575702 0.26958053999 0.4552243848 0.64114656805 0.79900176875 0.90476364055 0.94238844542 
0.90626293821 0.80206505104 0.64590708814 0.46189230259 0.27845706651 0.12405562253 0 0 0.00654865025 
0.098987058868 0.23820673062 0.40287475365 0.56782395556 0.70789065105 0.80174876778 0.83515913554 0.80314066285 0.71073365384 
0.57223953318 0.40905300728 0.246416797 0.10959285965 0 0 0.0041068244097 0.078614436051 0.19114503294 
0.32437374523 0.45788931319 0.57129595013 0.64731389017 0.6744079242 0.64854410622 0.57380727095 0.46178543546 0.32981493097 
0.19835348002 0.087880804066 0 0 0.0013323431119 0.054709071956 0.13574354251 0.23184870155 0.3282364216 
0.41014755525 0.46508521333 0.48470999332 0.46610722023 0.41223237597 0.33146655369 0.23634970506 0.14168485523 0.062301946413 
0 0 -0.0011502283132 0.031164559267 0.080695058409 0.13961686606 0.19879242959 0.24912358485 0.28291508068 
0.29503501012 0.28369168432 0.25070675815 0.20124234904 0.14302395044 0.085178547657 0.036866592865 0 0 
-0.0026315372958 0.011952987543 0.034746381731 0.062022210626 0.089486910937 0.11288578351 0.12862770309 0.13432072414 0.12913167437 
0.11391269349 0.091074753772 0.064227931538 0.037645248796 0.015636558828 0 0 0 0 
0 0 0 0 0 0 0 0 0 
0 0 0 0 
