# vtk DataFile Version 5.1
vtk output
ASCII
DATASET STRUCTURED_POINTS
DIMENSIONS 16 16 1
SPACING 1 1 1
ORIGIN 0 0 0
POINT_DATA 256
SCALARS scalars double
LOOKUP_TABLE default
0 0 0 0 0 0 0 0 0 
0 0 0 0 0 0 0 0 -0.0070899463939 
-0.0063852585907 -0.0034373169387 0.00084099030523 0.0055075226609 0.0096731923361 0.012605818357 0.013825217397 0.013168632578 0.010813696992 
0.0072544959747 0.0032349269117 -0.00034777744974 -0.0025467976763 0 0 -0.0074979384966 0.004592565038 0.025199901572 
0.050611154494 0.076573111992 0.0988888014 0.11402534686 0.11963408514 0.11489955538 0.10066194158 0.079293394211 0.054347208342 
0.030034474823 0.010610036851 0 0 -0.0064513848301 0.022940348336 0.069764735604 0.12628158785 0.18345787195 
0.23230860631 0.26524062227 0.27719368521 0.26640369504 0.23467059452 0.18708955084 0.13128609526 0.076271454766 0.03109110529 
0 0 -0.0045780739077 0.04535279045 0.12304684983 0.21606702397 0.30981080943 0.38971270703 0.44344547861 
0.46278640396 0.44486451848 0.39259872404 0.31425983723 0.2222229933 0.13109976543 0.055532750165 0 0 
-0.0024219263043 0.068120092927 0.17667717447 0.30613358447 0.43634529193 0.54719548178 0.62164753209 0.64833251995 0.62327822995 
0.55051684948 0.44147901777 0.3132665056 0.18606627329 0.08009890384 0 0 -0.00045048492952 0.087612433739 
0.22234870075 0.38268172664 0.54377994547 0.6808319336 0.77281874081 0.80571100299 0.77460533016 0.68447550968 0.54942469263 
0.39055281326 0.23276426234 0.10100224413 0 0 0.00096979748314 0.10078605487 0.25304718931 0.43403063363 
0.61577518028 0.77033573717 0.87403536857 0.91106908778 0.8759120929 0.77416678553 0.62172037838 0.44234203542 0.26408617852 
0.11505075134 0 0 0.0016055898002 0.10562124618 0.26409943968 0.45238658748 0.64142125407 0.8021571227 
0.90998335949 0.94847117263 0.91187752111 0.80602581049 0.64743032308 0.46079849482 0.27529230641 0.12011948442 0 
0 0.0013814566605 0.10141805604 0.25387565455 0.43502530071 0.61690053203 0.77155195166 0.87529932994 0.91233563479 
0.87713553063 0.77530255459 0.62272672013 0.44318152478 0.2647270928 0.11546834306 0 0 0.00038939039637 
0.08890098722 0.22403674103 0.38470754769 0.54607151327 0.68330855127 0.775392895 0.80829083403 0.77709775778 0.6867897285 
0.55147562812 0.39226421766 0.23407138604 0.10185431367 0 0 -0.0011193312513 0.07011578165 0.17928824009 
0.3092645791 0.43988589561 0.5510221905 0.62562590026 0.65232081646 0.62713245537 0.55409645736 0.44465247391 0.31591600897 
0.18809150254 0.081420389135 0 0 -0.0027568955947 0.048135539166 0.12667913521 0.22041661021 0.31472723428 
0.39502728463 0.44897308305 0.46833035501 0.45022413108 0.39757810236 0.31867619861 0.2259131437 0.13392432774 0.057379360812 
0 0 -0.0040269870617 0.026625384032 0.074554402929 0.13200459599 0.1899233632 0.23930074747 0.27251861062 
0.28449828547 0.27346870962 0.24123641125 0.19291558162 0.13615939184 0.080010211947 0.033544663249 0 0 
-0.0043393525775 0.0093403459284 0.031323626387 0.057904315011 0.084809505169 0.10780520629 0.12331863563 0.12897097544 0.12393480387 
0.10905977263 0.086746716994 0.060589636524 0.034841502032 0.013788942008 0 0 0 0 
0 0 0 0 0 0 0 0 0 
0 0 0 0 
