# vtk DataFile Version 5.1
vtk output
ASCII
DATASET STRUCTURED_POINTS
DIMENSIONS 16 16 1
SPACING 1 1 1
ORIGIN 0 0 0
POINT_DATA 256
SCALARS scalars double
LOOKUP_TABLE default
0 0 0 0 0 0 0 0 0 
0 0 0 0 0 0 0 0 -0.0010303263189 
0.002244725971 0.0070534657655 0.012640117762 0.018176986091 0.022848113785 0.025962571222 0.027058655514 0.025975567991 0.022879384454 
0.018239227806 0.012758642974 0.0072767198502 0.0026649288542 0 0 0.0022341728187 0.018345356434 0.041844145143 
0.069298421022 0.096635437952 0.11976335967 0.13520346947 0.14062846102 0.13522270326 0.11980961549 0.096727365123 0.069472815309 
0.042170048922 0.018949580365 0 0 0.0070262444091 0.041825669839 0.092525315928 0.15180739071 0.21087801712 
0.26087527018 0.29425974918 0.30598629762 0.29428494492 0.26093593051 0.21099874304 0.15203673446 0.092954364903 0.042621742145 
0 0 0.012592756003 0.069257031706 0.15178355809 0.24830815253 0.34451256013 0.42595240387 0.48033566139 
0.49943603855 0.48036639232 0.42602656318 0.34466069108 0.24859094577 0.15231603141 0.070253681715 0 0 
0.018109242557 0.096570643675 0.2108295199 0.34448749974 0.47771760333 0.59050886164 0.66583007099 0.69228274372 0.66586564392 
0.59059494518 0.47789031234 0.34481919077 0.21145891835 0.097760514372 0 0 0.022762980633 0.11967851693 
0.26080553142 0.42590562391 0.5904870007 0.72982500597 0.82287539988 0.8555535391 0.8229147728 0.72992052523 0.59067939566 
0.42627705413 0.26151494895 0.12103039644 0 0 0.025865769225 0.13510514505 0.29417568693 0.48027418922 
0.66579337521 0.82286052451 0.92775127717 0.96458702866 0.92779305673 0.82296206234 0.66599845083 0.48067149653 0.2949377651 
0.13656463772 0 0 0.026957718057 0.14052534156 0.30589711894 0.4993692935 0.69224069947 0.85553327994 
0.96458163093 1.0028772445 0.96462415855 0.85563672004 0.69244986949 0.49977513691 0.30667690086 0.14202157693 0 
0 0.025878653216 0.13512419883 0.29420062798 0.48030458786 0.66582854269 0.82289943166 0.92779255114 0.96462903676 
0.9278340543 0.82300036288 0.66603257071 0.48070023481 0.29496020105 0.13658006769 0 0 0.022793989903 
0.11972434989 0.26086558578 0.42597898442 0.59057210209 0.72991939121 0.82297570317 0.85565570934 0.82301446915 0.73001357106 
0.59076216443 0.42634667731 0.26156928855 0.1210678247 0 0 0.01817099548 0.096661761572 0.21094906156 
0.34463404386 0.47788833841 0.59069895998 0.66603263567 0.69248932721 0.66606715953 0.59078270889 0.47805693008 0.34495903339 
0.21156801577 0.097835896969 0 0 0.012710431832 0.069429968687 0.15201070433 0.24858793553 0.34484045 
0.42631936938 0.48072806183 0.49983681864 0.48075712825 0.42638978405 0.34498187201 0.24885960394 0.15252547246 0.070399226043 
0 0 0.007248095711 0.0421490313 0.092950368273 0.15233423267 0.21150017503 0.2615760895 0.29501232205 
0.30675625285 0.2950350033 0.26163101656 0.21161043127 0.15254584715 0.093350642094 0.042899688265 0 0 
0.0026522032587 0.018945274717 0.04263304093 0.070284593267 0.097811548846 0.12109869821 0.13664455972 0.1421056344 0.13666015109 
0.12113651019 0.09788767909 0.070431514614 0.042913453604 0.019477734486 0 0 0 0 
0 0 0 0 0 0 0 0 0 
0 0 0 0 
