# vtk DataFile Version 5.1
vtk output
ASCII
DATASET STRUCTURED_POINTS
DIMENSIONS 16 16 1
SPACING 1 1 1
ORIGIN 0 0 0
POINT_DATA 256
SCALARS scalars double
LOOKUP_TABLE default
0 0 0 0 0 0 0 0 0 
0 0 0 0 0 0 0 0 -0.0081288147365 
-0.0079238381334 -0.0053503455804 -0.0013243584587 0.0031930223291 0.0072884647655 0.010207644816 0.01145537813 0.010863987167 0.0086170885913 
0.0052242780962 0.0014507798761 -0.0017853674808 -0.0035267562041 0 0 -0.0094840341766 0.0013395784691 0.020701806083 
0.044963309279 0.069945238457 0.091520948358 0.10621623768 0.11172185808 0.10723699051 0.093589528437 0.073113959644 0.049305247057 
0.026301796522 0.0082768817324 0 0 -0.0095784241772 0.017529805502 0.061901561143 0.11598583418 0.17096960626 
0.21808791255 0.2499349463 0.26157671699 0.2512949311 0.22084795588 0.17520851317 0.12181755825 0.06946717221 0.026980330666 
0 0 -0.0089284795966 0.037578925074 0.1114407421 0.2005450445 0.29068305409 0.36768884857 0.41957733374 
0.43835659607 0.42123902556 0.37106670089 0.29588604666 0.20773617588 0.12083461815 0.049434721961 0 0 
-0.0079363695311 0.058071313689 0.16143919314 0.28551224577 0.41071449054 0.51750941437 0.58935855579 0.61522927798 0.59127062827 
0.52140246364 0.4167283278 0.29386156811 0.17241949094 0.072066714458 0 0 -0.0069233060957 0.07567761305 
0.20408551008 0.35779916058 0.51270301584 0.64471961222 0.73346093113 0.76532370895 0.73555812527 0.64899545214 0.51932439706 
0.36702692778 0.21628868698 0.09135568048 0 0 -0.00612964955 0.087611599118 0.23278867513 0.40633083784 
0.58109182151 0.72996335286 0.82998837153 0.86584819163 0.83219326107 0.73446328057 0.58807255365 0.41608559485 0.24573838985 
0.10433738466 0 0 -0.0057035291346 0.092026949597 0.24315972172 0.42371976937 0.60549539498 0.7603133925 
0.86431424812 0.90157679006 0.86654093853 0.76486031132 0.61255567633 0.43359928088 0.256299604 0.10903980095 0 
0 -0.0056897018109 0.0882856328 0.23366979086 0.40738536627 0.58228106034 0.73124485013 0.83131704239 0.86717745804 
0.8334763071 0.7356544184 0.58912864787 0.41696750741 0.24641246094 0.104776998 0 0 -0.0060246681661 
0.07705318704 0.20588203663 0.3599476255 0.51512469184 0.64732844709 0.73616559344 0.7680297729 0.73817058275 0.65142149266 
0.52147629066 0.36882489832 0.21766382657 0.092253105661 0 0 -0.0065397472069 0.060205454326 0.16422143601 
0.28883482161 0.41445617577 0.52153844676 0.59353513011 0.6194085836 0.59530666887 0.5251524057 0.4200569466 0.2966454954 
0.17455136506 0.073459825914 0 0 -0.0069696502911 0.040562713233 0.11531851337 0.20516521865 0.29587885942 
0.37328021825 0.4253728929 0.44415730303 0.42684353566 0.37627769576 0.30051652324 0.21161496079 0.12381116566 0.051384534009 
0 0 -0.0069589978578 0.021496646198 0.067029382184 0.12207358286 0.17780286119 0.22543617887 0.2575515733 
0.26920305737 0.25866797523 0.22770961345 0.18131445088 0.12694390888 0.073414649434 0.029577840454 0 0 
-0.0060503900853 0.0064793333914 0.027284802996 0.052737387387 0.078650732094 0.10087684117 0.11591639053 0.12144041972 0.11664007681 
0.10234948819 0.080922395505 0.055881357909 0.031393726447 0.01165667238 0 0 0 0 
0 0 0 0 0 0 0 0 0 
0 0 0 0 
