# vtk DataFile Version 5.1
vtk output
ASCII
DATASET STRUCTURED_POINTS
DIMENSIONS 16 16 1
SPACING 1 1 1
ORIGIN 0 0 0
POINT_DATA 256
SCALARS scalars double
LOOKUP_TABLE default
0 0 0 0 0 0 0 0 0 
0 0 0 0 0 0 0 0 -0.0065963735548 
-0.0056749760432 -0.0025768289684 0.0017911580378 0.0064999474857 0.010675614511 0.013599423034 0.014800216864 0.014118224787 0.011727545647 
0.0081129379751 0.0040051500989 0.00028772238157 -0.0021019632165 0 0 -0.0065844999497 0.0060040073708 0.027057052636 
0.052847902234 0.07911187857 0.10164203216 0.1168973156 0.12252345038 0.11770260109 0.10327615705 0.081620984856 0.05629828863 
0.031530095671 0.011585876901 0 0 -0.0050398218571 0.025211630835 0.072882974322 0.13018940155 0.18804612012 
0.23741613362 0.27066167927 0.28269219018 0.27173219602 0.23959095274 0.19139209732 0.13480435099 0.078890425291 0.032748573346 
0 0 -0.0026361003934 0.048554411466 0.1275492959 0.22183042444 0.31669482046 0.39747372566 0.45175074977 
0.47124255977 0.45305580214 0.40012863259 0.32078939511 0.22749941968 0.13497084685 0.057944546396 0 0 
2.2902467949e-05 0.072211327621 0.18251316166 0.3136952832 0.44546406249 0.55754752045 0.63277465669 0.65968516895 0.63427324729 
0.56060041687 0.45018431538 0.32025644996 0.1911538712 0.08324101439 0 0 0.0024073962231 0.092438154833 
0.22929050977 0.39173976624 0.55476298054 0.69334930704 0.78630680176 0.81948843122 0.78794762429 0.6966961027 0.55994915555 
0.39897356252 0.23886593086 0.10475194349 0 0 0.0040971064119 0.10609273903 0.26071550621 0.44407427261 
0.62798849978 0.7842840026 0.88908493408 0.92645097848 0.89080770209 0.7878011951 0.63344765909 0.45170796557 0.27085694058 
0.1192007891 0 0 0.0048222622566 0.11108897535 0.2720129515 0.46276491234 0.65405425594 0.8165950813 
0.92556845144 0.96440396649 0.92730664532 0.82014560082 0.65957005156 0.47048791093 0.28229148144 0.12440577731 0 
0 0.004494264673 0.10670309436 0.26151667656 0.44503764689 0.6290801399 0.78546544211 0.89031413743 0.92768363142 
0.89199882906 0.78890695383 0.63442710392 0.45252461134 0.27148007536 0.11960661169 0 0 0.0032172220587 
0.093681988995 0.23092239818 0.39370152903 0.55698588934 0.69575542328 0.78881072628 0.8219998881 0.79037484189 0.69894960735 
0.5619454632 0.40063835751 0.24013661698 0.10557981057 0 0 0.0012776117686 0.074136125603 0.18503587391 
0.3167263652 0.44889854529 0.56126614929 0.63664601115 0.66356957389 0.63802829348 0.5640872594 0.45327369647 0.3228336052 
0.19312207963 0.084524391985 0 0 -0.00088461449782 0.051234772048 0.13105540449 0.22603922802 0.32146378996 
0.40264002446 0.45713291928 0.47664593026 0.45828096889 0.40498129361 0.3250895313 0.23108816224 0.13771443357 0.059736522014 
0 0 -0.0027134203083 0.028754176983 0.077499851421 0.13572329031 0.19431749532 0.24421669099 0.27775438154 
0.28981882085 0.2786264649 0.2459938582 0.19706589158 0.13954195448 0.082518643151 0.035126506284 0 0 
-0.003562873562 0.010555408578 0.032947922606 0.05989288943 0.087100653804 0.11032051987 0.12596521028 0.13164583648 0.12653092989 
0.11147272855 0.088880802795 0.062362642982 0.036187656745 0.014660425493 0 0 0 0 
0 0 0 0 0 0 0 0 0 
0 0 0 0 
