# vtk DataFile Version 5.1
vtk output
ASCII
DATASET STRUCTURED_POINTS
DIMENSIONS 16 16 1
SPACING 1 1 1
ORIGIN 0 0 0
POINT_DATA 256
SCALARS scalars double
LOOKUP_TABLE default
0 0 0 0 0 0 0 0 0 
0 0 0 0 0 0 0 0 -0.0054829774641 
-0.0041078697204 -0.0007175549601 0.0038021056595 0.0085584123742 0.01271763585 0.015596168002 0.016746339486 0.016016193659 0.013570748638 
0.0098705411198 0.0056117270871 0.0016406893254 -0.0011338407466 0 0 -0.0045789266174 0.0089509441338 0.030754563593 
0.057110802764 0.083770626371 0.10654535956 0.12190983039 0.12751994168 0.12256051361 0.10786762997 0.085805902783 0.059919949994 
0.034415436743 0.013552847878 0 0 -0.0019912508128 0.029802795026 0.078825225462 0.13726975351 0.19602722172 
0.24603530927 0.27963353102 0.29171490072 0.28049656844 0.24779055959 0.19873273344 0.14101131601 0.083713009214 0.035962470643 
0 0 0.0015152018399 0.054899298435 0.13591262774 0.23198294354 0.32833259035 0.41021195018 0.46513251388 
0.48476045022 0.46618221684 0.41234917592 0.33163328374 0.23656136213 0.14192034234 0.062520773121 0 0 
0.0052155964232 0.080219824684 0.19318626188 0.32679506324 0.46062648749 0.57427050369 0.65043296276 0.67756781225 0.65163579818 
0.57672244107 0.46442139459 0.33207698272 0.20015299794 0.089127171339 0 0 0.0084533088455 0.10181313164 
0.2418669994 0.40727599544 0.57284709232 0.71338226625 0.80752249498 0.841004611 0.80883715621 0.71606511377 0.57700764145 
0.41308494788 0.24956480462 0.11172318876 0 0 0.010698061607 0.11635830299 0.27453547655 0.46120598156 
0.64798971709 0.80649226037 0.9126410648 0.95035916479 0.91401949144 0.80930761316 0.65236233579 0.467325254 0.28267213923 
0.1268841587 0 0 0.011605480378 0.12164830796 0.28624549774 0.4804290455 0.67469841031 0.83953570433 
0.94991470592 0.98912100151 0.95130416331 0.84237495779 0.67911184212 0.48661310766 0.29448248272 0.13232852428 0 
0 0.011059946384 0.11691578762 0.27526960209 0.462091963 0.64899735384 0.80758640419 0.91378245746 0.9515058014 
0.91512844202 0.8103370619 0.65327353135 0.46808412132 0.28325045815 0.12726040244 0 0 0.0091902636926 
0.10294804585 0.24336129334 0.40907962106 0.57489911285 0.71561148522 0.80984897806 0.84334247896 0.8110984663 0.71816424108 
0.5788654268 0.41463201554 0.25074382913 0.11249037813 0 0 0.0063547688918 0.081972767974 0.19549334029 
0.3295802434 0.46379732734 0.57771811065 0.65403382571 0.68118820445 0.65513829965 0.57997338732 0.46729781258 0.33447183355 
0.20197826989 0.090315417128 0 0 0.0030997038957 0.057333064899 0.13911251496 0.23584670962 0.33273610687 
0.41500660392 0.47014665753 0.4898058597 0.47106443384 0.41687944611 0.33563944842 0.23989547805 0.14446201523 0.064177221634 
0 0 0.00010237250552 0.033005006237 0.08302576802 0.14234260973 0.20181885204 0.2523556669 0.28625617855 
0.29838662836 0.2869538185 0.25377846567 0.20402216776 0.14540989057 0.087067644082 0.038154443922 0 0 
-0.0018794056215 0.013037948551 0.036089297735 0.063554707439 0.091149287119 0.11462684558 0.1304030774 0.13609019569 0.13085597953 
0.11555016291 0.092578219854 0.065542376064 0.038706804518 0.016373734549 0 0 0 0 
0 0 0 0 0 0 0 0 0 
0 0 0 0 
