# vtk DataFile Version 5.1
vtk output
ASCII
DATASET STRUCTURED_POINTS
DIMENSIONS 16 16 1
SPACING 1 1 1
ORIGIN 0 0 0
POINT_DATA 256
SCALARS scalars double
LOOKUP_TABLE default
0 0 0 0 0 0 0 0 0 
0 0 0 0 0 0 0 0 -0.007813418538 
-0.0074493372814 -0.0047522711612 -0.00063889400405 0.0039339866969 0.0080590972353 0.01098779112 0.012228759347 0.011615586848 0.0093303208381 
0.005878547761 0.0020200950037 -0.0013319550614 -0.0032218350705 0 0 -0.0088703040787 0.0023750157357 0.022167311038 
0.046837358691 0.072175214604 0.09402451681 0.10888621694 0.11443442059 0.10986222813 0.096002918635 0.075207118033 0.050994568182 
0.027534164767 0.009032557631 0 0 -0.0086026372646 0.019279217884 0.064509181467 0.11946265528 0.17524099069 
0.2229936831 0.25524218876 0.26700360887 0.25654203419 0.22563218027 0.17929454488 0.12504200355 0.071751954578 0.028333816738 
0 0 -0.0075631633387 0.040114506146 0.11532531351 0.20583240751 0.29727657351 0.3753396787 0.42790655877 
0.44689772478 0.42949411761 0.37856729404 0.3022493206 0.21270753977 0.12431003462 0.05145925713 0 0 
-0.0061997625888 0.06136576481 0.16656624674 0.2925705653 0.41958735318 0.5278609007 0.60066499764 0.62684050436 0.60249108197 
0.53157926706 0.42533232171 0.30054839219 0.17706075462 0.074745746707 0 0 -0.004880666047 0.079602302783 
0.21024927303 0.3663396391 0.52348736542 0.65733888342 0.74726938632 0.77951599455 0.74927163685 0.66142147894 0.52981030352 
0.37515292695 0.22190647154 0.094581702517 0 0 -0.0038866844202 0.091951162695 0.23963723259 0.41585252831 
0.59314346704 0.74408759205 0.84545822067 0.88175486979 0.84756278062 0.74838304479 0.59980769021 0.42516622119 0.25200321082 
0.10792528095 0 0 -0.0033932540329 0.096507681054 0.2502430779 0.43357955463 0.61798514296 0.77495902605 
0.88036047016 0.91807866001 0.88248548429 0.77929858439 0.62472407943 0.44301052626 0.26278804311 0.11275238857 0 
0 -0.0034549488309 0.092613029731 0.24050317249 0.41688989471 0.59431450135 0.74535060323 0.84676867027 0.88306654818 
0.8488291459 0.74955868743 0.60084983639 0.42603620818 0.2526679348 0.10835867228 0 0 -0.0039991124037 
0.080952654865 0.21201449864 0.36845292377 0.52587196948 0.65991030465 0.74993734592 0.78218671632 0.75185055848 0.66381626403 
0.53193391149 0.37692656207 0.22326242526 0.095466299935 0 0 -0.0048305465645 0.063459685733 0.1692990143 
0.29583813367 0.42327174875 0.53183275285 0.60478595833 0.63096648725 0.60647646903 0.53528170059 0.42861751159 0.30329452126 
0.17916250795 0.076118560874 0 0 -0.0056445998912 0.043039699852 0.11913194561 0.21037477384 0.30239278865 
0.38085297417 0.43362720871 0.45262708859 0.43503070703 0.38371389621 0.30681994414 0.21653324397 0.12724355492 0.053379728718 
0 0 -0.0060405244661 0.023163560246 0.06953865123 0.12544529575 0.18196948598 0.2302417896 0.26276468029 
0.27454119786 0.26383023724 0.23241197059 0.18532234883 0.13009702675 0.075640109636 0.030890195011 0 0 
-0.0055179336916 0.0073993786978 0.028616085496 0.054472434054 0.08074709357 0.10325734023 0.11847426477 0.12404891024 0.11916508239 
0.10466333075 0.082916562789 0.057476326267 0.032544618685 0.012354532402 0 0 0 0 
0 0 0 0 0 0 0 0 0 
0 0 0 0 
