# vtk DataFile Version 5.1
vtk output
ASCII
DATASET STRUCTURED_POINTS
DIMENSIONS 16 16 1
SPACING 1 1 1
ORIGIN 0 0 0
POINT_DATA 256
SCALARS scalars double
LOOKUP_TABLE default
0 0 0 0 0 0 0 0 0 
0 0 0 0 0 0 0 0 -0.0051371416455 
-0.003626717895 -0.00015242963171 0.0044074794491 0.0091723314169 0.01332144872 0.016182578157 0.017315656245 0.016571306422 0.014111703184 
0.010389654708 0.0060901813624 0.0020475167907 -0.00083944825741 0 0 -0.0039724529308 0.0098091085677 0.031790153712 
0.058258981337 0.084980094924 0.10777907211 0.1231429414 0.12873566538 0.12374468394 0.10900285701 0.086866280873 0.06086727507 
0.035197861285 0.014106901299 0 0 -0.0010862209385 0.031093769785 0.08040707006 0.13905814714 0.19795081283 
0.24803547423 0.2816621195 0.29373045512 0.28245959003 0.24965847439 0.2004552547 0.14252690308 0.084947099063 0.036828148328 
0 0 0.0027322705308 0.056642431494 0.1380676233 0.23444765848 0.33101619387 0.41303327262 0.46801763538 
0.487639702 0.46898680588 0.41500767776 0.33406826787 0.23868641727 0.14363775895 0.063720128521 0 0 
0.0067252228508 0.082386492611 0.19587903998 0.32989638264 0.46402808364 0.57787019551 0.65413209446 0.68126917721 0.65524184251 
0.58013352547 0.46753388462 0.33478094192 0.20232926895 0.090643631743 0 0 0.010201334125 0.10432459136 
0.24499785167 0.41089671254 0.576835637 0.71761945757 0.81188931711 0.84538096995 0.81310150954 0.72009432957 0.58067640933 
0.41626407169 0.25211774018 0.11350021538 0 0 0.01260021239 0.11909240284 0.27794923005 0.46516242564 
0.65235814536 0.81114260195 0.91744109224 0.95517382151 0.91871150529 0.81373845842 0.65639255427 0.47081315659 0.28546996145 
0.12883079241 0 0 0.01355706292 0.12445350087 0.28974951593 0.48449278417 0.67918859686 0.84431889414 
0.95485443867 0.99407733144 0.95613463349 0.84693596837 0.68325930487 0.49020129147 0.29736001823 0.13433059745 0 
0 0.012948896258 0.11962993791 0.27865781094 0.46601859265 0.65333304704 0.81220235923 0.91854758992 0.95628607876 
0.91978754081 0.81473738439 0.65727656622 0.47154914694 0.28603065061 0.12919547507 0 0 0.0109113272 
0.10541886024 0.24644026752 0.41264000507 0.57882164687 0.71977954531 0.8141457978 0.847649939 0.81529683709 0.72213217923 
0.5824794883 0.41776496452 0.25326107653 0.11424394536 0 0 0.0078224217183 0.084076434846 0.19810617045 
0.3325891853 0.46709849428 0.58121320013 0.65762744786 0.68478590655 0.65864501017 0.58329195942 0.4703273321 0.33710537314 
0.20409981436 0.091795744138 0 0 0.0042575470771 0.058987889527 0.14115646157 0.23818441081 0.33528300158 
0.41768675973 0.47289025499 0.4925464396 0.47373599151 0.4194134582 0.33796192709 0.24192416432 0.14610385368 0.065326319974 
0 0 0.00092713396779 0.034177428103 0.084460536268 0.14396530542 0.20356672687 0.25417670263 0.28810681268 
0.3002284954 0.28874987835 0.25548892891 0.20560065701 0.1468002925 0.088202124955 0.038953156214 0 0 
-0.0013806706881 0.013739164954 0.03693399988 0.064492443689 0.092140298183 0.11564197053 0.13142190834 0.13709794094 0.13183952579 
0.11649387922 0.093460083378 0.066331014505 0.039360067657 0.016839460406 0 0 0 0 
0 0 0 0 0 0 0 0 0 
0 0 0 0 
