# vtk DataFile Version 5.1
vtk output
ASCII
DATASET STRUCTURED_POINTS
DIMENSIONS 16 16 1
SPACING 1 1 1
ORIGIN 0 0 0
POINT_DATA 256
SCALARS scalars double
LOOKUP_TABLE default
0 0 0 0 0 0 0 0 0 
0 0 0 0 0 0 0 0 -0.0068464847297 
-0.006033497483 -0.0030095870837 0.0013150028398 0.00600431767 0.010176502173 0.013105809246 0.014316379667 0.013646885387 0.011273262942 
0.0076851295846 0.0036201009454 -3.1086354157e-05 -0.0023259694012 0 0 -0.0070453183155 0.005297891517 0.026134987438 
0.051744801746 0.077866846321 0.10029763567 0.11549892493 0.12111839058 0.11633908925 0.10200211408 0.080482836735 0.055339798461 
0.030791087136 0.011100399789 0 0 -0.005750064658 0.024081040533 0.07134482945 0.12827602975 0.18581249228 
0.23494001056 0.26804040117 0.28003645338 0.2691577524 0.237209544 0.18930305649 0.13308814854 0.077605018263 0.031928770733 
0 0 -0.0036116590104 0.0469654785 0.12533651931 0.21901941591 0.31335622189 0.39372462104 0.44774841205 
0.46717164394 0.44911113873 0.39649646713 0.31763015688 0.22493485067 0.13307761499 0.056755408959 0 0 
-0.0012040510646 0.070184602869 0.17965128661 0.31001546709 0.4410511484 0.55255678775 0.62742252747 0.65422972293 0.62898795548 
0.55574551658 0.44598060687 0.31686594384 0.18867071353 0.081694629297 0 0 0.00097401577808 0.090050232115 
0.22589081615 0.38733761299 0.54945454541 0.68732167749 0.779826113 0.81287468478 0.78154067922 0.69081861853 0.55487272753 
0.39489385257 0.23589134056 0.10290851418 0 0 0.0025291254745 0.10346844266 0.25696272716 0.43919667473 
0.62208948384 0.77757160971 0.88185827585 0.91907123798 0.88365892698 0.78124757839 0.62779453318 0.44717324022 0.26755828468 
0.11716173875 0 0 0.003209696963 0.10838568666 0.26814125941 0.45772620074 0.64795417454 0.80964877758 
0.91808641056 0.9567616652 0.91990350256 0.81336024952 0.65371951142 0.46579772509 0.27888238473 0.12230025226 0 
0 0.0029337053637 0.10408988281 0.25777788672 0.44017610363 0.62319843922 0.7787709309 0.88310536985 0.92032134934 
0.88486670275 0.78236880041 0.62878783286 0.44800164742 0.26819056901 0.11757361545 0 0 0.0017992162811 
0.091316960782 0.22755147766 0.3893322368 0.5517127193 0.68976405031 0.78236619352 0.81542136941 0.78400150612 0.69310341307 
0.55689717705 0.39658264468 0.23718077558 0.10374882872 0 0 7.5145766733e-05 0.072145677048 0.18221925617 
0.3130977925 0.44454013725 0.55633100949 0.63134899569 0.65816767982 0.63279414185 0.55928018296 0.44911330595 0.31948034543 
0.19066825458 0.0829975986 0 0 -0.0018245611875 0.04969819707 0.1289072246 0.22330040197 0.31820092672 
0.39896721346 0.453205527 0.47264753182 0.45440567958 0.40141448824 0.3219901866 0.22857579169 0.13586283851 0.058575455852 
0 0 -0.003373637479 0.027696383525 0.076050100598 0.13390684119 0.19218356652 0.2418391893 0.27522867123 
0.28725499293 0.27614022063 0.24369653842 0.19505531722 0.13789557533 0.081290032044 0.034345522515 0 0 
-0.0039538586843 0.0099495024223 0.032144859448 0.058916898697 0.085982796529 0.10909868173 0.12468323572 0.13035174816 0.12527447663 
0.11030267388 0.087842410306 0.061495729126 0.03552535544 0.014228440725 0 0 0 0 
0 0 0 0 0 0 0 0 0 
0 0 0 0 
