# vtk DataFile Version 5.1
vtk output
ASCII
DATASET STRUCTURED_POINTS
DIMENSIONS 16 16 1
SPACING 1 1 1
ORIGIN 0 0 0
POINT_DATA 256
SCALARS scalars double
LOOKUP_TABLE default
0 0 0 0 0 0 0 0 0 
0 0 0 0 0 0 0 0 -0.0075179700615 
-0.0070110815147 -0.004206598225 -2.0453071707e-05 0.0045958018003 0.0087416657726 0.011674691944 0.012907773998 0.012275874617 0.0099593624399 
0.0064594783024 0.0025300852156 -0.0009215242284 -0.0029424466098 0 0 -0.0083044611944 0.0033046282494 0.023455900536 
0.048458500983 0.074080539655 0.096144870525 0.11113509988 0.11671368571 0.11206941121 0.098039205691 0.076984846596 0.052443327093 
0.028605002779 0.0097005278227 0 0 -0.0077108477631 0.02082794955 0.06676606671 0.12242359076 0.17883753829 
0.22709307788 0.25965689634 0.27150920085 0.26090070767 0.22961830514 0.18271830663 0.12776756751 0.073707569144 0.029512777391 
0 0 -0.0063217570177 0.042341786821 0.11865983909 0.21030062232 0.30279005458 0.38169347176 0.43479595235 
0.45395072807 0.43631445889 0.38478112607 0.30754825247 0.21688119843 0.12726300676 0.053209725931 0 0 
-0.0046256333891 0.064246408772 0.17094675767 0.2985098794 0.42697883609 0.53642885456 0.60998863134 0.63640110305 0.61173464157 
0.53998453286 0.43247334948 0.30614156235 0.18098848336 0.077052583974 0 0 -0.0030325666741 0.083024726645 
0.21550121499 0.37350847573 0.53245186844 0.66776410081 0.75863669572 0.79118275964 0.76055055164 0.67166676316 0.53849687553 
0.38193568783 0.22664971922 0.097352986476 0 0 -0.0018594309281 0.0957297411 0.24546403567 0.42383436335 
0.60314976626 0.75574416983 0.85818137983 0.89481941282 0.86019254594 0.75984926544 0.60951929031 0.43273730527 0.25728627184 
0.11100351726 0 0 -0.0013060284253 0.10040694397 0.25626623337 0.44184057481 0.62835050531 0.78704104331 
0.89355280872 0.93162729419 0.89558318597 0.79118758059 0.63479027669 0.4508538885 0.26825712049 0.1159360661 0 
0 -0.0014357050502 0.096379710247 0.24631507816 0.4248548007 0.60430274353 0.75698874039 0.85947356038 0.89611339086 
0.86144209214 0.76100928515 0.61054739596 0.43359531705 0.25794163384 0.11143068938 0 0 -0.0021676536762 
0.084350443214 0.21723574152 0.37558707438 0.53479969886 0.67029817667 0.76126781404 0.79381786185 0.76309561058 0.67403000003 
0.54059199395 0.38368488698 0.22798646722 0.098224773576 0 0 -0.0032830509745 0.066301125327 0.17363107787 
0.3017232599 0.43060639852 0.54034356603 0.61405365208 0.64047320271 0.61566874862 0.54363891949 0.43571475768 0.30884974518 
0.18306011956 0.078405164179 0 0 -0.0044421974347 0.045210035441 0.12239697497 0.21476644303 0.30782730686 
0.38712860906 0.44044100267 0.45960769271 0.4417820049 0.38986241449 0.31205846686 0.22065364953 0.13015359599 0.055101034689 
0 0 -0.0052040218308 0.024632435317 0.071699772445 0.12830302953 0.18546209101 0.23424065185 0.26708389555 
0.27895612716 0.26810212355 0.23631470646 0.18866714943 0.13275113996 0.077536745208 0.032028458069 0 0 
-0.0050301062016 0.0082178549051 0.02977454981 0.055957463445 0.08251983542 0.1052536783 0.12060850954 0.12622073793 0.12126872843 
0.10659760595 0.084594127024 0.05883084022 0.033534903074 0.012965669597 0 0 0 0 
0 0 0 0 0 0 0 0 0 
0 0 0 0 
