# vtk DataFile Version 5.1
vtk output
ASCII
DATASET STRUCTURED_POINTS
DIMENSIONS 16 16 1
SPACING 1 1 1
ORIGIN 0 0 0
POINT_DATA 256
SCALARS scalars double
LOOKUP_TABLE default
0 0 0 0 0 0 0 0 0 
0 0 0 0 0 0 0 0 -0.0044013245269 
-0.0026559740719 0.00092126924185 0.0054813656346 0.010182632332 0.014244274645 0.017027644086 0.018114603905 0.017362657939 0.01492475781 
0.011229798626 0.0069280925592 0.0028147028407 -0.0002462411383 0 0 -0.0026559740719 0.011546318587 0.033733147873 
0.060243173312 0.086901438532 0.10959316772 0.1248547828 0.13038212095 0.12537236342 0.11064448338 0.088518913563 0.062475680905 
0.036646094729 0.015220959366 0 0 0.00092126924185 0.033733147873 0.083371644852 0.14211767367 0.20095884058 
0.2509250038 0.28443071026 0.29641683113 0.28511471522 0.2523147511 0.20309778532 0.14507059878 0.087222901628 0.03858094877 
0 0 0.0054813656346 0.060243173312 0.14211767367 0.23865034744 0.33518281802 0.41707415421 0.47192217256 
0.49144715343 0.47275088024 0.41875890908 0.33777849457 0.2422393962 0.14680909563 0.066168452165 0 0 
0.010182632332 0.086901438532 0.20095884058 0.33518281802 0.46929382056 0.58300493643 0.65911769668 0.68614507094 0.66006378659 
0.58492986172 0.47226383268 0.33929905868 0.20635902561 0.09376127147 0 0 0.014244274645 0.10959316772 
0.2509250038 0.41707415421 0.58300493643 0.72365386292 0.81776472519 0.85113697301 0.81879547344 0.72575274952 0.58624820391 
0.4215799494 0.25685834084 0.11717351017 0 0 0.017027644086 0.1248547828 0.28443071026 0.47192217256 
0.65911769668 0.81776472519 0.92389798024 0.96150528258 0.92497602001 0.81996137633 0.66251613921 0.47665259295 0.29067783572 
0.13287007507 0 0 0.018114603905 0.13038212095 0.29641683113 0.49144715343 0.68614507094 0.85113697301 
0.96150528258 1.0006009809 0.96259006648 0.85334825616 0.68956857109 0.49621755984 0.30272638702 0.13849460716 0 
0 0.017362657939 0.12537236342 0.28511471522 0.47275088024 0.66006378659 0.81879547344 0.92497602001 0.96259006648 
0.92602585689 0.82093571834 0.66337772413 0.47736911747 0.29122302446 0.13322425063 0 0 0.01492475781 
0.11064448338 0.2523147511 0.41875890908 0.58492986172 0.72575274952 0.81996137633 0.85334825616 0.82093571834 0.72773871731 
0.5880036961 0.42303928959 0.25796840769 0.11789460233 0 0 0.011229798626 0.088518913563 0.20309778532 
0.33777849457 0.47226383268 0.58624820391 0.66251613921 0.68956857109 0.66337772413 0.5880036961 0.47497894586 0.34155436685 
0.20807369544 0.094875110885 0 0 0.0069280925592 0.062475680905 0.14507059878 0.2422393962 0.33929905868 
0.4215799494 0.47665259295 0.49621755984 0.47736911747 0.42303928959 0.34155436685 0.24537155068 0.14918859465 0.067714733993 
0 0 0.0028147028407 0.036646094729 0.087222901628 0.14680909563 0.20635902561 0.25685834084 0.29067783572 
0.30272638702 0.29122302446 0.25796840769 0.20807369544 0.14918859465 0.090347835111 0.040614666916 0 0 
-0.0002462411383 0.015220959366 0.03858094877 0.066168452165 0.09376127147 0.11717351017 0.13287007507 0.13849460716 0.13322425063 
0.11789460233 0.094875110885 0.067714733993 0.040614666916 0.017814802442 0 0 0 0 
0 0 0 0 0 0 0 0 0 
0 0 0 0 
