# vtk DataFile Version 5.1
vtk output
ASCII
DATASET STRUCTURED_POINTS
DIMENSIONS 16 16 1
SPACING 1 1 1
ORIGIN 0 0 0
POINT_DATA 256
SCALARS scalars double
LOOKUP_TABLE default
0 0 0 0 0 0 0 0 0 
0 0 0 0 0 0 0 0 -0.0043991818553 
-0.0026526596769 0.00092563526691 0.0054866238899 0.010188590107 0.014250713288 0.017034327215 0.018121286196 0.017369094186 0.014930711987 
0.011235052608 0.0069324542649 0.0028180135035 -0.00024410106577 0 0 -0.0026526596769 0.011551455702 0.033739918718 
0.060251329242 0.086910680011 0.10960315531 0.1248651497 0.13039248654 0.12538234725 0.11065371921 0.088527062791 0.062482444977 
0.036651225996 0.015224269698 0 0 0.00092563526691 0.033739918718 0.083380571026 0.14212842686 0.2009710255 
0.25093817268 0.28444437937 0.29643049849 0.28512787913 0.25232692853 0.20310852962 0.14507951598 0.087229664726 0.038585309417 
0 0 0.0054866238899 0.060251329242 0.14212842686 0.23866330222 0.33519749802 0.41709001986 0.47193864094 
0.4914636197 0.47276673988 0.41877358004 0.33779143862 0.24225013854 0.1468172422 0.066173703924 0 0 
0.010188590107 0.086910680011 0.2009710255 0.33519749802 0.46931045578 0.58302291534 0.65913635866 0.68616373053 0.66008175867 
0.58494648667 0.4722785005 0.33931123129 0.20636825647 0.093767221871 0 0 0.014250713288 0.10960315531 
0.25093817268 0.41709001986 0.58302291534 0.72367329415 0.8177848947 0.85115713993 0.81881489728 0.72577071733 0.58626405638 
0.42159310497 0.25686831693 0.11717994083 0 0 0.017034327215 0.1248651497 0.28444437937 0.47193864094 
0.65913635866 0.8177848947 0.9239189161 0.96152621574 0.92499618185 0.81998002677 0.66253259389 0.47666624822 0.29068819068 
0.13287674991 0 0 0.018121286196 0.13039248654 0.29643049849 0.4914636197 0.68616373053 0.85115713993 
0.96152621574 1.0006219114 0.96261022572 0.8533669042 0.68958502366 0.49623121336 0.30273674066 0.13850128116 0 
0 0.017369094186 0.12538234725 0.28512787913 0.47276673988 0.66008175867 0.81881489728 0.92499618185 0.96261022572 
0.92604527333 0.82095367931 0.66339357058 0.47738226805 0.29123299679 0.13323067889 0 0 0.014930711987 
0.11065371921 0.25232692853 0.41877358004 0.58494648667 0.72577071733 0.81998002677 0.8533669042 0.82095367931 0.72775533199 
0.58801835487 0.4230514547 0.2579776329 0.11790054913 0 0 0.011235052608 0.088527062791 0.20310852962 
0.33779143862 0.4722785005 0.58626405638 0.66253259389 0.68958502366 0.66339357058 0.58801835487 0.47499187917 0.34156510029 
0.2080818353 0.094880358365 0 0 0.0069324542649 0.062482444977 0.14507951598 0.24225013854 0.33931123129 
0.42159310497 0.47666624822 0.49623121336 0.47738226805 0.4230514547 0.34156510029 0.2453804589 0.14919535097 0.067719090314 
0 0 0.0028180135035 0.036651225996 0.087229664726 0.1468172422 0.20636825647 0.25686831693 0.29068819068 
0.30273674066 0.29123299679 0.2579776329 0.2080818353 0.14919535097 0.090352960522 0.040617973511 0 0 
-0.00024410106576 0.015224269698 0.038585309417 0.066173703924 0.093767221871 0.11717994083 0.13287674991 0.13850128116 0.13323067889 
0.11790054913 0.094880358365 0.067719090314 0.040617973511 0.017816939913 0 0 0 0 
0 0 0 0 0 0 0 0 0 
0 0 0 0 
