# vtk DataFile Version 5.1
vtk output
ASCII
DATASET STRUCTURED_POINTS
DIMENSIONS 16 16 1
SPACING 1 1 1
ORIGIN 0 0 0
POINT_DATA 256
SCALARS scalars double
LOOKUP_TABLE default
0 0 0 0 0 0 0 0 0 
0 0 0 0 0 0 0 0 -0.004402239036 
-0.0026573887256 0.00091940562877 0.005479121016 0.010180088887 0.014241525647 0.017024790412 0.018111750291 0.017359909113 0.014922214623 
0.011227554313 0.0069262292554 0.0028132884543 -0.00024715546136 0 0 -0.0026573887256 0.011544125889 0.033730257683 
0.060239691633 0.0868974931 0.10958890334 0.124850356 0.13037769425 0.12536809931 0.11064053835 0.088515432364 0.062472791201 
0.03664390245 0.015219545003 0 0 0.00091940562877 0.033730257683 0.083367834431 0.142113083 0.20095363823 
0.25091938078 0.28442487305 0.29641099405 0.28510909256 0.25230954928 0.20309319528 0.145066789 0.087220011993 0.038579085542 
0 0 0.005479121016 0.060239691633 0.142113083 0.23864481646 0.33517654992 0.41706737919 0.47191513943 
0.49144012045 0.47274410565 0.41875264162 0.33777296436 0.2422348063 0.14680561462 0.066166208012 0 0 
0.010180088887 0.0868974931 0.20095363823 0.33517654992 0.46928671699 0.58299725831 0.65910972602 0.68613710045 0.66005610897 
0.58492275888 0.47225756545 0.33929385721 0.20635508094 0.093758728553 0 0 0.014241525647 0.10958890334 
0.25091938078 0.41706737919 0.58299725831 0.72364556376 0.81775610981 0.85112835781 0.8187871748 0.7257450722 0.58624142983 
0.42157432734 0.25685407728 0.11717076174 0 0 0.017024790412 0.124850356 0.28442487305 0.47191513943 
0.65910972602 0.81775610981 0.92388903657 0.9614963391 0.92496740518 0.8199534065 0.66250910706 0.47664675673 0.29067340978 
0.13286722199 0 0 0.018111750291 0.13037769425 0.29641099405 0.49144012045 0.68613710045 0.85112835781 
0.9614963391 1.0005920377 0.96258145183 0.8533402865 0.68956153909 0.49621172374 0.30272196117 0.13849175414 0 
0 0.017359909113 0.12536809931 0.28510909256 0.47274410565 0.66005610897 0.8187871748 0.92496740518 0.96258145183 
0.92601755879 0.82092804151 0.66337095049 0.47736349576 0.29121876117 0.13322150237 0 0 0.014922214623 
0.11064053835 0.25230954928 0.41875264162 0.58492275888 0.7257450722 0.8199534065 0.8533402865 0.82092804151 0.72773161521 
0.58799742951 0.42303408865 0.25796446343 0.11789205967 0 0 0.011227554313 0.088515432364 0.20309319528 
0.33777296436 0.47225756545 0.58624142983 0.66250910706 0.68956153909 0.66337095049 0.58799742951 0.47497341642 0.34154977758 
0.20807021491 0.094872867037 0 0 0.0069262292554 0.062472791201 0.145066789 0.2422348063 0.33929385721 
0.42157432734 0.47664675673 0.49621172374 0.47736349576 0.42303408865 0.34154977758 0.24536774155 0.1491857055 0.067712871074 
0 0 0.0028132884543 0.03664390245 0.087220011993 0.14680561462 0.20635508094 0.25685407728 0.29067340978 
0.30272196117 0.29121876117 0.25796446343 0.20807021491 0.1491857055 0.090345643251 0.04061325282 0 0 
-0.00024715546136 0.015219545003 0.038579085542 0.066166208012 0.093758728553 0.11717076174 0.13286722199 0.13849175414 0.13322150237 
0.11789205967 0.094872867037 0.067712871074 0.04061325282 0.017813888305 0 0 0 0 
0 0 0 0 0 0 0 0 0 
0 0 0 0 
