# vtk DataFile Version 5.1
vtk output
ASCII
DATASET STRUCTURED_POINTS
DIMENSIONS 16 16 1
SPACING 1 1 1
ORIGIN 0 0 0
POINT_DATA 256
SCALARS scalars double
LOOKUP_TABLE default
0 0 0 0 0 0 0 0 0 
0 0 0 0 0 0 0 0 -0.0044020758424 
-0.0026571362801 0.0009197381944 0.005479521578 0.010180542783 0.014242016234 0.017025299688 0.018112259566 0.017360399696 0.014922668513 
0.011227954869 0.0069265618146 0.0028135408942 -0.00024699227168 0 0 -0.0026571362801 0.011544517179 0.033730773447 
0.060240312957 0.086898197195 0.10958966437 0.12485114603 0.13037848428 0.12536886033 0.11064124244 0.088516053679 0.062473306954 
0.036644293731 0.015219797442 0 0 0.0009197381944 0.033730773447 0.083368514419 0.14211390224 0.20095456664 
0.25092038428 0.2844259148 0.29641203579 0.28511009605 0.25231047768 0.20309401451 0.14506746898 0.087220527745 0.0385794181 
0 0 0.005479521578 0.060240312957 0.14211390224 0.23864580352 0.33517766854 0.41706858829 0.47191639463 
0.49144137564 0.47274531475 0.41875376023 0.3377739514 0.24223562553 0.14680623593 0.066166608564 0 0 
0.010180542783 0.086898197195 0.20095456664 0.33517766854 0.46928798473 0.58299862861 0.65911114856 0.68613852299 0.66005747926 
0.58492402661 0.47225868405 0.3392947856 0.20635578502 0.093759182438 0 0 0.014242016234 0.10958966437 
0.25092038428 0.41706858829 0.58299862861 0.72364704492 0.81775764743 0.85112989543 0.81878865596 0.72574644248 0.58624263892 
0.42157533082 0.25685483829 0.11717125232 0 0 0.017025299688 0.12485114603 0.2844259148 0.47191639463 
0.65911114856 0.81775764743 0.92389063282 0.96149793534 0.92496894279 0.81995482902 0.66251036223 0.47664779845 0.29067419978 
0.13286773125 0 0 0.018112259566 0.13037848428 0.29641203579 0.49144137564 0.68613852299 0.85112989543 
0.96149793534 1.0005936339 0.96258298944 0.85334170901 0.68956279426 0.49621276546 0.30272275118 0.1384922634 0 
0 0.017360399696 0.12536886033 0.28511009605 0.47274531475 0.66005747926 0.81878865596 0.92496894279 0.96258298944 
0.92601903993 0.82092941178 0.66337215956 0.47736449924 0.29121952217 0.13322199294 0 0 0.014922668513 
0.11064124244 0.25231047768 0.41875376023 0.58492402661 0.72574644248 0.81995482902 0.85334170901 0.82092941178 0.72773288291 
0.5879985481 0.42303501703 0.2579651675 0.11789251355 0 0 0.011227954869 0.088516053679 0.20309401451 
0.3377739514 0.47225868405 0.58624263892 0.66251036223 0.68956279426 0.66337215956 0.5879985481 0.47497440345 0.34155059679 
0.20807083621 0.094873267583 0 0 0.0069265618146 0.062473306954 0.14506746898 0.24223562553 0.3392947856 
0.42157533082 0.47664779845 0.49621276546 0.47736449924 0.42303501703 0.34155059679 0.24536842151 0.14918622125 0.067713203626 
0 0 0.0028135408942 0.036644293731 0.087220527745 0.14680623593 0.20635578502 0.25685483829 0.29067419978 
0.30272275118 0.29121952217 0.2579651675 0.20807083621 0.14918622125 0.090346034523 0.040613505254 0 0 
-0.00024699227167 0.015219797442 0.0385794181 0.066166608564 0.093759182438 0.11717125232 0.13286773125 0.1384922634 0.13322199294 
0.11789251355 0.094873267583 0.067713203626 0.040613505254 0.017814051491 0 0 0 0 
0 0 0 0 0 0 0 0 0 
0 0 0 0 
