# vtk DataFile Version 5.1
vtk output
ASCII
DATASET STRUCTURED_POINTS
DIMENSIONS 16 16 1
SPACING 1 1 1
ORIGIN 0 0 0
POINT_DATA 256
SCALARS scalars double
LOOKUP_TABLE default
0 0 0 0 0 0 0 0 0 
0 0 0 0 0 0 0 0 -0.0043527655267 
-0.002580923535 0.0010199866777 0.0056000249265 0.010316766341 0.014388862474 0.017177313902 0.018263841364 0.01750601228 0.01505703858 
0.01134625736 0.0070245853911 0.0028878310522 -0.00019902093899 0 0 -0.002580923535 0.011662543199 0.033886105088 
0.06042705591 0.087109307226 0.1098172335 0.12508671696 0.13061337633 0.12559449268 0.11084944269 0.088699341865 0.062625146944 
0.036759304693 0.015293915336 0 0 0.0010199866777 0.033886105088 0.083572985849 0.14235974036 0.201232488 
0.25121997193 0.28473603128 0.29672125137 0.28540711356 0.25258453785 0.20333526855 0.14526730802 0.087371860481 0.038676890022 
0 0 0.0056000249265 0.06042705591 0.14235974036 0.2389413861 0.33551182807 0.41742879553 0.47228925553 
0.49181314619 0.47310241139 0.41908324673 0.33806398631 0.24247585792 0.14698814036 0.066283753127 0 0 
0.010316766341 0.087109307226 0.201232488 0.33551182807 0.46966575414 0.58340584044 0.65953265871 0.68655879294 0.66046115303 
0.5852964809 0.4725865338 0.3395663314 0.20656139239 0.093891586536 0 0 0.014388862474 0.1098172335 
0.25121997193 0.41742879553 0.58340584044 0.72408598749 0.81821199502 0.8515828983 0.81922376232 0.72614789134 0.58659600482 
0.42186800597 0.25707644153 0.11731395777 0 0 0.017177313902 0.12508671696 0.28473603128 0.47228925553 
0.65953265871 0.81821199502 0.92436091812 0.96196682089 0.92541929718 0.82037034038 0.6628761019 0.47695071973 0.29090356096 
0.13301543557 0 0 0.018263841364 0.13061337633 0.29672125137 0.49181314619 0.68655879294 0.8515828983 
0.96196682089 1.0010611165 0.96303199004 0.85375596658 0.68992742746 0.49651476961 0.30295141954 0.13863952574 0 
0 0.01750601228 0.12559449268 0.28540711356 0.47310241139 0.66046115303 0.81922376232 0.92541929718 0.96303199004 
0.92645028426 0.82132728382 0.66372236893 0.47765455797 0.29143914891 0.13336343749 0 0 0.01505703858 
0.11084944269 0.25258453785 0.41908324673 0.5852964809 0.72614789134 0.82037034038 0.85375596658 0.82132728382 0.72809996391 
0.58832165589 0.42330263219 0.25816780548 0.11802302325 0 0 0.01134625736 0.088699341865 0.20333526855 
0.33806398631 0.4725865338 0.58659600482 0.6628761019 0.68992742746 0.66372236893 0.58832165589 0.475258809 0.34178616283 
0.20824921523 0.094988162805 0 0 0.0070245853911 0.062625146944 0.14526730802 0.24247585792 0.3395663314 
0.42186800597 0.47695071973 0.49651476961 0.47765455797 0.42330263219 0.34178616283 0.24556354527 0.14933399115 0.067808401774 
0 0 0.0028878310522 0.036759304693 0.087371860481 0.14698814036 0.20656139239 0.25707644153 0.29090356096 
0.30295141954 0.29143914891 0.25816780548 0.20824921523 0.14933399115 0.090457969286 0.040685658552 0 0 
-0.00019902093899 0.015293915336 0.038676890022 0.066283753127 0.093891586536 0.11731395777 0.13301543557 0.13863952574 0.13336343749 
0.11802302325 0.094988162805 0.067808401774 0.040685658552 0.017860654899 0 0 0 0 
0 0 0 0 0 0 0 0 0 
0 0 0 0 
