# vtk DataFile Version 5.1
vtk output
ASCII
DATASET STRUCTURED_POINTS
DIMENSIONS 16 16 1
SPACING 1 1 1
ORIGIN 0 0 0
POINT_DATA 256
SCALARS scalars double
LOOKUP_TABLE default
0 0 0 0 0 0 0 0 0 
0 0 0 0 0 0 0 0 -0.0044022184382 
-0.0026573568626 0.0009194476044 0.0054791715741 0.010180146177 0.014241587568 0.017024854692 0.018111814572 0.017359971034 0.014922271913 
0.011227604871 0.006926271231 0.0028133203173 -0.00024713486354 0 0 -0.0026573568626 0.011544175277 0.033730322782 
0.060239770055 0.08689758197 0.10958899939 0.12485045572 0.13037779397 0.12536819536 0.11064062722 0.088515510787 0.062472856299 
0.036643951838 0.015219576866 0 0 0.0009194476044 0.033730322782 0.083367920258 0.1421131864 0.20095375541 
0.25091950744 0.28442500454 0.29641112553 0.28510921922 0.25230966646 0.20309329868 0.14506687483 0.087220077092 0.038579127518 
0 0 0.005479171574 0.060239770055 0.1421131864 0.23864494105 0.33517669111 0.4170675318 0.47191529786 
0.49144027888 0.47274425826 0.41875278281 0.33777308895 0.24223490971 0.14680569304 0.06616625857 0 0 
0.010180146177 0.08689758197 0.20095375541 0.33517669111 0.46928687701 0.58299743127 0.65910990557 0.68613728001 0.66005628193 
0.58492291889 0.47225770664 0.33929397439 0.20635516981 0.093758785843 0 0 0.014241587568 0.10958899939 
0.25091950744 0.4170675318 0.58299743127 0.72364575071 0.81775630388 0.85112855189 0.81878736176 0.72574524516 0.58624158244 
0.421574454 0.25685417333 0.11717082366 0 0 0.017024854692 0.12485045572 0.28442500454 0.47191529786 
0.65910990557 0.81775630388 0.92388923805 0.96149654058 0.92496759925 0.81995358605 0.66250926548 0.47664688822 0.29067350949 
0.13286728627 0 0 0.018111814572 0.13037779397 0.29641112553 0.49144027888 0.68613728001 0.85112855189 
0.96149654058 1.0005922391 0.9625816459 0.85334046605 0.68956169752 0.49621185523 0.30272206089 0.13849181842 0 
0 0.017359971034 0.12536819536 0.28510921922 0.47274425826 0.66005628193 0.81878736176 0.92496759925 0.9625816459 
0.92601774574 0.82092821447 0.6633711031 0.47736362242 0.29121885722 0.13322156429 0 0 0.014922271913 
0.11064062722 0.25230966646 0.41875278281 0.58492291889 0.72574524516 0.81995358605 0.85334046605 0.82092821447 0.72773177522 
0.5879975707 0.42303420583 0.2579645523 0.11789211696 0 0 0.011227604871 0.088515510787 0.20309329868 
0.33777308895 0.47225770664 0.58624158244 0.66250926548 0.68956169752 0.6633711031 0.5879975707 0.47497354101 0.34154988098 
0.20807029334 0.094872917595 0 0 0.006926271231 0.062472856299 0.14506687483 0.24223490971 0.33929397439 
0.421574454 0.47664688822 0.49621185523 0.47736362242 0.42303420583 0.34154988098 0.24536782737 0.1491857706 0.06771291305 
0 0 0.0028133203173 0.036643951838 0.087220077092 0.14680569304 0.20635516981 0.25685417333 0.29067350949 
0.30272206089 0.29121885722 0.2579645523 0.20807029334 0.1491857706 0.090345692638 0.040613284683 0 0 
-0.00024713486354 0.015219576866 0.038579127518 0.06616625857 0.093758785843 0.11717082366 0.13286728627 0.13849181842 0.13322156429 
0.11789211696 0.094872917595 0.06771291305 0.040613284683 0.017813908903 0 0 0 0 
0 0 0 0 0 0 0 0 0 
0 0 0 0 
