# vtk DataFile Version 5.1
vtk output
ASCII
DATASET STRUCTURED_POINTS
DIMENSIONS 16 16 1
SPACING 1 1 1
ORIGIN 0 0 0
POINT_DATA 256
SCALARS scalars double
LOOKUP_TABLE default
0 0 0 0 0 0 0 0 0 
0 0 0 0 0 0 0 0 -0.0044022244569 
-0.002657366173 0.00091943533903 0.0054791568009 0.010180129437 0.014241569475 0.017024835909 0.018111795789 0.017359952941 0.014922255172 
0.011227590098 0.0069262589656 0.0028133110069 -0.00024714088226 0 0 -0.002657366173 0.011544160846 0.03373030376 
0.06023974714 0.086897556002 0.10958897133 0.12485042658 0.13037776483 0.1253681673 0.11064060125 0.088515487871 0.062472837278 
0.036643937407 0.015219567556 0 0 0.00091943533903 0.03373030376 0.083367895179 0.14211315619 0.20095372117 
0.25091947043 0.28442496612 0.29641108711 0.28510918221 0.25230963222 0.20309326847 0.14506684975 0.08722005807 0.038579115253 
0 0 0.0054791568009 0.06023974714 0.14211315619 0.23864490464 0.33517664985 0.41706748721 0.47191525157 
0.49144023259 0.47274421367 0.41875274156 0.33777305254 0.24223487949 0.14680567013 0.066166243796 0 0 
0.010180129437 0.086897556002 0.20095372117 0.33517664985 0.46928683025 0.58299738073 0.65910985311 0.68613722754 0.66005623139 
0.58492287214 0.47225766538 0.33929394015 0.20635514384 0.093758769103 0 0 0.014241569475 0.10958897133 
0.25091947043 0.41706748721 0.58299738073 0.72364569608 0.81775624717 0.85112849518 0.81878730713 0.72574519462 0.58624153785 
0.42157441699 0.25685414526 0.11717080557 0 0 0.017024835909 0.12485042658 0.28442496612 0.47191525157 
0.65910985311 0.81775624717 0.92388917918 0.96149648171 0.92496754254 0.81995353358 0.66250921919 0.4766468498 0.29067348036 
0.13286726749 0 0 0.018111795789 0.13037776483 0.29641108711 0.49144023259 0.68613722754 0.85112849518 
0.96149648171 1.0005921803 0.96258158919 0.85334041358 0.68956165122 0.49621181681 0.30272203175 0.13849179964 0 
0 0.017359952941 0.1253681673 0.28510918221 0.47274421367 0.66005623139 0.81878730713 0.92496754254 0.96258158919 
0.92601769111 0.82092816393 0.6633710585 0.47736358541 0.29121882916 0.1332215462 0 0 0.014922255172 
0.11064060125 0.25230963222 0.41875274156 0.58492287214 0.72574519462 0.81995353358 0.85334041358 0.82092816393 0.72773172846 
0.58799752945 0.42303417159 0.25796452633 0.11789210022 0 0 0.011227590098 0.088515487871 0.20309326847 
0.33777305254 0.47225766538 0.58624153785 0.66250921919 0.68956165122 0.6633710585 0.58799752945 0.4749735046 0.34154985077 
0.20807027042 0.094872902822 0 0 0.0069262589656 0.062472837278 0.14506684975 0.24223487949 0.33929394015 
0.42157441699 0.4766468498 0.49621181681 0.47736358541 0.42303417159 0.34154985077 0.24536780229 0.14918575158 0.067712900785 
0 0 0.0028133110069 0.036643937407 0.08722005807 0.14680567013 0.20635514384 0.25685414526 0.29067348036 
0.30272203175 0.29121882916 0.25796452633 0.20807027042 0.14918575158 0.090345678207 0.040613275373 0 0 
-0.00024714088226 0.015219567556 0.038579115253 0.066166243796 0.093758769103 0.11717080557 0.13286726749 0.13849179964 0.1332215462 
0.11789210022 0.094872902822 0.067712900785 0.040613275373 0.017813902885 0 0 0 0 
0 0 0 0 0 0 0 0 0 
0 0 0 0 
