# vtk DataFile Version 5.1
vtk output
ASCII
DATASET STRUCTURED_POINTS
DIMENSIONS 16 16 1
SPACING 1 1 1
ORIGIN 0 0 0
POINT_DATA 256
SCALARS scalars double
LOOKUP_TABLE default
0 0 0 0 0 0 0 0 0 
0 0 0 0 0 0 0 0 -0.0044022329047 
-0.0026573792409 0.00091941812362 0.0054791360656 0.01018010594 0.014241544079 0.017024809546 0.018111769426 0.017359927545 0.014922231676 
0.011227569363 0.0069262417503 0.0028132979389 -0.00024714933001 0 0 -0.0026573792409 0.01154414059 0.033730277061 
0.060239714977 0.086897519554 0.10958893193 0.12485038569 0.13037772394 0.1253681279 0.1106405648 0.088515455708 0.062472810579 
0.036643917151 0.015219554488 0 0 0.00091941812362 0.033730277061 0.083367859979 0.14211311378 0.20095367311 
0.25091941848 0.28442491219 0.29641103319 0.28510913026 0.25230958416 0.20309322606 0.14506681455 0.087220031371 0.038579098037 
0 0 0.0054791360656 0.060239714977 0.14211311378 0.23864485355 0.33517659195 0.41706742462 0.47191518659 
0.49144016761 0.47274415108 0.41875268365 0.33777300145 0.24223483708 0.14680563796 0.066166223061 0 0 
0.01018010594 0.086897519554 0.20095367311 0.33517659195 0.46928676462 0.5829973098 0.65910977947 0.6861371539 0.66005616045 
0.58492280651 0.47225760748 0.33929389209 0.20635510739 0.093758745607 0 0 0.014241544079 0.10958893193 
0.25091941848 0.41706742462 0.5829973098 0.72364561941 0.81775616758 0.85112841558 0.81878723045 0.72574512368 0.58624147526 
0.42157436504 0.25685410587 0.11717078017 0 0 0.017024809546 0.12485038569 0.28442491219 0.47191518659 
0.65910977947 0.81775616758 0.92388909655 0.96149639907 0.92496746295 0.81995345994 0.66250915421 0.47664679587 0.29067343946 
0.13286724112 0 0 0.018111769426 0.13037772394 0.29641103319 0.49144016761 0.6861371539 0.85112841558 
0.96149639907 1.0005920976 0.9625815096 0.85334033994 0.68956158625 0.49621176288 0.30272199085 0.13849177327 0 
0 0.017359927545 0.1253681279 0.28510913026 0.47274415108 0.66005616045 0.81878723045 0.92496746295 0.9625815096 
0.92601761444 0.82092809299 0.66337099591 0.47736353347 0.29121878976 0.13322152081 0 0 0.014922231676 
0.1106405648 0.25230958416 0.41875268365 0.58492280651 0.72574512368 0.81995345994 0.85334033994 0.82092809299 0.72773166284 
0.58799747154 0.42303412353 0.25796448988 0.11789207673 0 0 0.011227569363 0.088515455708 0.20309322606 
0.33777300145 0.47225760748 0.58624147526 0.66250915421 0.68956158625 0.66337099591 0.58799747154 0.47497345351 0.34154980836 
0.20807023826 0.094872882087 0 0 0.0069262417503 0.062472810579 0.14506681455 0.24223483708 0.33929389209 
0.42157436504 0.47664679587 0.49621176288 0.47736353347 0.42303412353 0.34154980836 0.24536776709 0.14918572488 0.067712883569 
0 0 0.0028132979389 0.036643917151 0.087220031371 0.14680563796 0.20635510739 0.25685410587 0.29067343946 
0.30272199085 0.29121878976 0.25796448988 0.20807023826 0.14918572488 0.090345657952 0.040613262305 0 0 
-0.00024714933001 0.015219554488 0.038579098037 0.066166223061 0.093758745607 0.11717078017 0.13286724112 0.13849177327 0.13322152081 
0.11789207673 0.094872882087 0.067712883569 0.040613262305 0.017813894437 0 0 0 0 
0 0 0 0 0 0 0 0 0 
0 0 0 0 
