# vtk DataFile Version 5.1
vtk output
ASCII
DATASET STRUCTURED_POINTS
DIMENSIONS 16 16 1
SPACING 1 1 1
ORIGIN 0 0 0
POINT_DATA 256
SCALARS scalars double
LOOKUP_TABLE default
0 0 0 0 0 0 0 0 0 
0 0 0 0 0 0 0 0 -0.0044022347064 
-0.0026573820281 0.00091941445189 0.0054791316431 0.010180100929 0.014241538663 0.017024803923 0.018111763803 0.017359922129 0.014922226665 
0.01122756494 0.0069262380785 0.0028132951518 -0.00024715113177 0 0 -0.0026573820281 0.01154413627 0.033730271367 
0.060239708117 0.08689751178 0.10958892353 0.12485037696 0.13037771521 0.1253681195 0.11064055703 0.088515448848 0.062472804884 
0.036643912831 0.015219551701 0 0 0.00091941445189 0.033730271367 0.083367852472 0.14211310473 0.20095366286 
0.2509194074 0.28442490069 0.29641102168 0.28510911918 0.25230957391 0.20309321701 0.14506680704 0.087220025677 0.038579094366 
0 0 0.0054791316431 0.060239708117 0.14211310473 0.23864484265 0.3351765796 0.41706741127 0.47191517273 
0.49144015375 0.47274413773 0.4187526713 0.33777299055 0.24223482804 0.1468056311 0.066166218639 0 0 
0.010180100929 0.08689751178 0.20095366286 0.3351765796 0.46928675063 0.58299729467 0.65910976376 0.6861371382 0.66005614532 
0.58492279252 0.47225759512 0.33929388184 0.20635509962 0.093758740595 0 0 0.014241538663 0.10958892353 
0.2509194074 0.41706741127 0.58299729467 0.72364560305 0.8177561506 0.8511283986 0.8187872141 0.72574510855 0.58624146191 
0.42157435396 0.25685409747 0.11717077476 0 0 0.017024803923 0.12485037696 0.28442490069 0.47191517273 
0.65910976376 0.8177561506 0.92388907892 0.96149638145 0.92496744597 0.81995344424 0.66250914036 0.47664678437 0.29067343074 
0.1328672355 0 0 0.018111763803 0.13037771521 0.29641102168 0.49144015375 0.6861371382 0.8511283986 
0.96149638145 1.00059208 0.96258149262 0.85334032424 0.68956157239 0.49621175138 0.30272198213 0.13849176765 0 
0 0.017359922129 0.1253681195 0.28510911918 0.47274413773 0.66005614532 0.8187872141 0.92496744597 0.96258149262 
0.92601759808 0.82092807786 0.66337098256 0.47736352239 0.29121878136 0.13322151539 0 0 0.014922226665 
0.11064055703 0.25230957391 0.4187526713 0.58492279252 0.72574510855 0.81995344424 0.85334032424 0.82092807786 0.72773164884 
0.58799745919 0.42303411328 0.25796448211 0.11789207171 0 0 0.01122756494 0.088515448848 0.20309321701 
0.33777299055 0.47225759512 0.58624146191 0.66250914036 0.68956157239 0.66337098256 0.58799745919 0.47497344261 0.34154979932 
0.2080702314 0.094872877664 0 0 0.0069262380785 0.062472804884 0.14506680704 0.24223482804 0.33929388184 
0.42157435396 0.47664678437 0.49621175138 0.47736352239 0.42303411328 0.34154979932 0.24536775959 0.14918571919 0.067712879898 
0 0 0.0028132951518 0.036643912831 0.087220025677 0.1468056311 0.20635509962 0.25685409747 0.29067343074 
0.30272198213 0.29121878136 0.25796448211 0.2080702314 0.14918571919 0.090345653632 0.040613259518 0 0 
-0.00024715113177 0.015219551701 0.038579094366 0.066166218639 0.093758740595 0.11717077476 0.1328672355 0.13849176765 0.13322151539 
0.11789207171 0.094872877664 0.067712879898 0.040613259518 0.017813892635 0 0 0 0 
0 0 0 0 0 0 0 0 0 
0 0 0 0 
