# vtk DataFile Version 5.1
vtk output
ASCII
DATASET STRUCTURED_POINTS
DIMENSIONS 16 16 1
SPACING 1 1 1
ORIGIN 0 0 0
POINT_DATA 256
SCALARS scalars double
LOOKUP_TABLE default
0 0 0 0 0 0 0 0 0 
0 0 0 0 0 0 0 0 -0.0038338747403 
-0.0017910278488 0.0020330193106 0.0067803648326 0.011606869669 0.015734096651 0.018528430723 0.019577502937 0.018743989099 0.016184865136 
0.012332106809 0.0078389540718 0.0035043255877 0.00019805063919 0 0 -0.0017910278488 0.012865751327 0.03542713202 
0.06221884964 0.089063114352 0.11184976076 0.12712382383 0.13259063561 0.12745562468 0.11254389604 0.090180252027 0.063848622147 
0.03768550118 0.015889694513 0 0 0.0020330193106 0.03542713202 0.085542334552 0.14464320379 0.20371478107 
0.25379429809 0.28730880965 0.29921251631 0.28774799294 0.25471357516 0.2051952955 0.14680419073 0.088535784007 0.039425966865 
0 0 0.0067803648326 0.06221884964 0.14464320379 0.24158018094 0.33836977717 0.42038157451 0.47522992575 
0.49465221515 0.47576421542 0.42150089521 0.34017503313 0.24422038822 0.14831013739 0.067135506637 0 0 
0.011606869669 0.089063114352 0.20371478107 0.33836977717 0.47274835903 0.58657734852 0.66267865468 0.6895858022 0.66329189964 
0.58786346155 0.47482648364 0.34141759686 0.20796525529 0.094797272627 0 0 0.015734096651 0.11184976076 
0.25379429809 0.42038157451 0.58657734852 0.72733477803 0.82142129985 0.85465974256 0.82209320828 0.72874540698 0.58886085906 
0.42373996698 0.2584969664 0.1182315863 0 0 0.018528430723 0.12712382383 0.28730880965 0.47522992575 
0.66267865468 0.82142129985 0.9275185495 0.96498351572 0.928224988 0.82290563534 0.66508488113 0.47877629502 0.29228968284 
0.13391185131 0 0 0.019577502937 0.13259063561 0.29921251631 0.49465221515 0.6895858022 0.85465974256 
0.96498351572 1.0039341831 0.96569751656 0.8561606325 0.69202067885 0.49824465364 0.30426539988 0.13948998473 0 
0 0.018743989099 0.12745562468 0.28774799294 0.47576421542 0.66329189964 0.82209320828 0.928224988 0.96569751656 
0.92891833742 0.82355071867 0.66565639352 0.47925250092 0.29265310087 0.13414948555 0 0 0.016184865136 
0.11254389604 0.25471357516 0.42150089521 0.58786346155 0.72874540698 0.82290563534 0.8561606325 0.82355071867 0.73010097148 
0.59006108621 0.42473934721 0.2592591759 0.11872969861 0 0 0.012332106809 0.090180252027 0.2051952955 
0.34017503313 0.47482648364 0.58886085906 0.66508488113 0.69202067885 0.66565639352 0.59006108621 0.47677009306 0.34303396622 
0.20919680115 0.095601521689 0 0 0.0078389540718 0.063848622147 0.14680419073 0.24422038822 0.34141759686 
0.42373996698 0.47877629502 0.49824465364 0.47925250092 0.42473934721 0.34303396622 0.24659338491 0.15011572912 0.06831415294 
0 0 0.0035043255877 0.03768550118 0.088535784007 0.14831013739 0.20796525529 0.2584969664 0.29228968284 
0.30426539988 0.29265310087 0.2592591759 0.20919680115 0.15011572912 0.091051137536 0.04106931575 0 0 
0.00019805063919 0.015889694513 0.039425966865 0.067135506637 0.094797272627 0.1182315863 0.13391185131 0.13948998473 0.13414948555 
0.11872969861 0.095601521689 0.06831415294 0.04106931575 0.018109081374 0 0 0 0 
0 0 0 0 0 0 0 0 0 
0 0 0 0 
