# vtk DataFile Version 5.1
vtk output
ASCII
DATASET STRUCTURED_POINTS
DIMENSIONS 16 16 1
SPACING 1 1 1
ORIGIN 0 0 0
POINT_DATA 256
SCALARS scalars double
LOOKUP_TABLE default
0 0 0 0 0 0 0 0 0 
0 0 0 0 0 0 0 0 -0.0087011785399 
-0.0081222972713 -0.0054493419096 -0.0015627903686 0.0026776604029 0.006484572234 0.0092196492886 0.010467934658 0.010089612194 0.0082373185061 
0.0053344718924 0.0020176969519 -0.00094636882918 -0.0027529514724 0 0 -0.0089291341041 0.0038552638343 0.025031574879 
0.0508781893 0.077165054412 0.099732951958 0.11508717092 0.1209069115 0.11638721021 0.10235794064 0.081159982522 0.056296723469 
0.031913982095 0.012187601662 0 0 -0.0075926382492 0.023485805607 0.07190211237 0.12985999544 0.18827660559 
0.23812405047 0.27177606666 0.28415243283 0.27348436308 0.24158245641 0.19356518552 0.13708848098 0.08119291863 0.034942304498 
0 0 -0.0053750820425 0.047318135342 0.12770895589 0.22325699727 0.31923131706 0.40093489143 0.4559285516 
0.47591666963 0.45800733579 0.40515473151 0.32571592367 0.23218913019 0.13932486947 0.061896087906 0 0 
-0.0028654527411 0.071477588439 0.18379503337 0.31682503965 0.45022002786 0.5636459066 0.63987749372 0.66742153442 0.64226938644 
0.56851326732 0.45773263257 0.32724428779 0.19748260768 0.088908339484 0 0 -0.00056586652528 0.092174226774 
0.23156575354 0.39635125299 0.5614329468 0.70171006479 0.79591051259 0.82983724748 0.79853753527 0.70706639794 0.56972908885 
0.4079187317 0.24687905015 0.11188585732 0 0 0.0011325335459 0.10623123373 0.2637642815 0.44980464987 
0.63608214155 0.79431296578 0.90052273115 0.93870899322 0.90328871256 0.79996006184 0.64484888248 0.46207100259 0.28008284461 
0.12737760337 0 0 0.0019814395974 0.11154134037 0.27555707514 0.46916023462 0.66296221886 0.82755708786 
0.93801770631 0.97770507032 0.94081393135 0.83326932492 0.6718391544 0.48159937887 0.29213928386 0.13308663433 0 
0 0.0018997920337 0.10737426765 0.26526059821 0.45161827677 0.63816113003 0.79658889514 0.90291280436 0.94112063595 
0.90562596455 0.80213062375 0.64677052704 0.46367620226 0.28132089751 0.12821419537 0 0 0.00098198533547 
0.094484160626 0.23459608671 0.40003245363 0.56566152945 0.70634701212 0.80078555816 0.83475878463 0.80330653454 0.71149178949 
0.57364173025 0.41118138148 0.24939068405 0.11358010289 0 0 -0.00051327538051 0.074998839494 0.18843234102 
0.3224812472 0.45674152141 0.57081863164 0.64743366471 0.6750564699 0.64966549041 0.57536661956 0.46377708725 0.33226845476 
0.20133658789 0.09149952843 0 0 -0.002191243177 0.052107804668 0.13405547592 0.23104763602 0.3282660568 
0.41091770051 0.46647709477 0.48658904358 0.46834063901 0.41470794797 0.33410876555 0.2391291512 0.14461731206 0.06543457987 
0 0 -0.0035588879604 0.029598321606 0.080077279793 0.13999265377 0.20012870635 0.25130757958 0.28576717433 
0.29833324752 0.28720364433 0.25422309677 0.20460546126 0.14614482275 0.088034763064 0.039474376095 0 0 
-0.0040585372632 0.011313643696 0.035148897492 0.063600164769 0.092232216373 0.11665082569 0.13314834797 0.13925675824 0.13411854514 
0.1186161998 0.095239060893 0.067706816654 0.040406100428 0.017724675096 0 0 0 0 
0 0 0 0 0 0 0 0 0 
0 0 0 0 
