# vtk DataFile Version 5.1
vtk output
ASCII
DATASET STRUCTURED_POINTS
DIMENSIONS 16 16 1
SPACING 1 1 1
ORIGIN 0 0 0
POINT_DATA 256
SCALARS scalars double
LOOKUP_TABLE default
0 0 0 0 0 0 0 0 0 
0 0 0 0 0 0 0 0 -0.0033400002203 
-0.0032159340475 -0.0025801508317 -0.0017678923873 -0.00097943613623 -0.00033951370271 7.5301213116e-05 0.00022483475583 0.00010119992756 -0.00027128899944 
-0.00083296702645 -0.0014806414145 -0.002049049499 -0.0022696752571 0 0 -0.00091386114974 0.0085736407683 0.02280842965 
0.039467956622 0.056003142506 0.069943628681 0.079227077187 0.082488337085 0.079256312781 0.070024637448 0.056184617938 0.039832801702 
0.023488112306 0.0097720925387 0 0 0.0036837687593 0.027541750787 0.06241348655 0.10304897842 0.14338978059 
0.1774357867 0.2001253138 0.20808748599 0.20014756101 0.17750572123 0.14356159188 0.10341260442 0.063105943825 0.028763149626 
0 0 0.0095309073148 0.050523389729 0.10988891556 0.17893800936 0.24747529432 0.30533064621 0.34389429533 
0.35742059814 0.34390045487 0.3053686254 0.24759899713 0.17923479753 0.11048737085 0.051602946325 0 0 
0.01559413542 0.073824325632 0.15777176477 0.25531085507 0.35210962548 0.43382506215 0.48829491858 0.50739485989 0.48827939083 
0.4338181735 0.35216151391 0.25550111343 0.15821424353 0.07467243431 0 0 0.020860048795 0.09376826854 
0.19861267502 0.32035469701 0.44115467372 0.54313005402 0.61110453911 0.63493517829 0.61106634364 0.54307564864 0.44112920866 
0.32042866024 0.19888464402 0.09436753751 0 0 0.024477538815 0.10724735348 0.2261048603 0.36406381853 
0.5009390295 0.6164807266 0.69349651748 0.72049298127 0.6934391949 0.61638603605 0.50084768548 0.36403871539 0.22623271753 
0.10764001465 0 0 0.025881658277 0.1121902118 0.23604097608 0.37976111873 0.52233831816 0.64268770532 
0.72290537492 0.75102108918 0.72283587995 0.64256731016 0.52220492743 0.37967320584 0.23607904332 0.11245796525 0 
0 0.024876986289 0.10787488212 0.2269522554 0.36511449796 0.50216523265 0.61784229269 0.69494185464 0.72196220014 
0.69486880921 0.61771425458 0.50201920698 0.36500810862 0.22696589682 0.10811391809 0 0 0.021666330074 
0.095037936342 0.20033230077 0.32249354599 0.44365804726 0.54591626581 0.61406688833 0.63794881508 0.61399864151 0.54579787266 
0.44352702182 0.3224093787 0.20038009566 0.095332745215 0 0 0.016819663791 0.075762471057 0.16041095272 
0.25861206225 0.35599342765 0.43816548758 0.49292254395 0.51210878851 0.4928654936 0.43806957572 0.35589689461 0.25857698845 
0.16052901382 0.076162466481 0 0 0.011187714168 0.053161286107 0.11351183167 0.18351031013 0.25289772645 
0.31142869264 0.35042276419 0.36408331106 0.35038033495 0.31136139637 0.25284307734 0.18353082848 0.11370322598 0.053664109446 
0 0 0.0057736223832 0.030902481149 0.067089823411 0.10903084738 0.1505680165 0.18558123021 0.20889601575 
0.21706074312 0.20886855352 0.18554175286 0.15055007034 0.1090919423 0.067321675181 0.031447272846 0 0 
0.0015842469473 0.012647771932 0.028591874696 0.047017806707 0.065218973454 0.080532656882 0.09071718549 0.094280550173 0.090702813602 
0.080515236841 0.065223495747 0.047088398524 0.028802353255 0.013121251873 0 0 0 0 
0 0 0 0 0 0 0 0 0 
0 0 0 0 
