# vtk DataFile Version 5.1
vtk output
ASCII
DATASET STRUCTURED_POINTS
DIMENSIONS 16 16 1
SPACING 1 1 1
ORIGIN 0 0 0
POINT_DATA 256
SCALARS scalars double
LOOKUP_TABLE default
0 0 0 0 0 0 0 0 0 
0 0 0 0 0 0 0 0 -0.0025044819138 
0.00025434436195 0.0046586080096 0.0098682652766 0.015051213505 0.019426144138 0.022346278133 0.023384834204 0.022396706749 0.019541756783 
0.015265099796 0.010239566436 0.0052855880158 0.0012953946246 0 0 4.1941080962e-06 0.015601424035 0.038854951689 
0.066141359821 0.093328723216 0.11632815427 0.13168537219 0.13709719974 0.13176171944 0.11650349801 0.09365388609 0.066707039278 
0.039810452701 0.017179880072 0 0 0.0040042382011 0.038396469307 0.089142633279 0.14860088022 0.20784947708 
0.25798548604 0.2914632713 0.30324329373 0.29156454152 0.25821860905 0.20828331365 0.14935895167 0.090429567202 0.040534273522 
0 0 0.0087201595563 0.065104320514 0.14799279756 0.24505374635 0.34177285817 0.42362320584 0.47827774345 
0.49749828603 0.47840216424 0.42391045012 0.34230989653 0.24599814381 0.14960960847 0.067820822708 0 0 
0.013400442004 0.091695504916 0.206603986 0.34112191491 0.47516525398 0.58860572773 0.66435368899 0.69098462018 0.66449829732 
0.58894057131 0.47579429564 0.34223546429 0.20852714857 0.094964207762 0 0 0.017344921069 0.11418163178 
0.25618715889 0.42240277454 0.58803111444 0.72820399933 0.82180157116 0.85470289436 0.82196194233 0.7285762852 0.58873334097 
0.42365276359 0.25836133575 0.11791022702 0 0 0.019975379288 0.12919234633 0.28929026253 0.47666957613 
0.66338604044 0.8214069615 0.92692177895 0.96400931499 0.92709205646 0.82180293782 0.66413502237 0.4780077095 0.29162846591 
0.13322467388 0 0 0.02091054079 0.13447980352 0.30093489447 0.49574898008 0.68987287684 0.85416273478 
0.96386316955 1.0024208306 0.96403642626 0.85456596365 0.69063651694 0.49711544872 0.30332707197 0.13861409943 0 
0 0.020020887397 0.1292608058 0.28938039637 0.47677951585 0.66351302982 0.82154713359 0.9270701567 0.96416007642 
0.92723900147 0.82194003003 0.66425686147 0.47810981876 0.29170735444 0.13327774157 0 0 0.017449519493 
0.11433910284 0.25639474937 0.42265649037 0.58832486278 0.72852893558 0.82214606187 0.85505318249 0.82230333462 0.72889452791 
0.58901580989 0.42388916214 0.25854377656 0.11803286198 0 0 0.013594793045 0.091988280839 0.20699062188 
0.34159596953 0.47571619283 0.58921726666 0.66500362635 0.69164625954 0.66514300425 0.58954072358 0.47632581663 0.34267925114 
0.20886905107 0.09519384115 0 0 0.0090597209957 0.065615568802 0.14866915464 0.24588663233 0.34274595956 
0.424708482 0.4794349851 0.4986781148 0.47955135516 0.42497802602 0.34325234878 0.24678231486 0.15021231871 0.068225493878 
0 0 0.0045828967104 0.039264513405 0.090292511807 0.15002498324 0.20952515099 0.25986592657 0.29347679932 
0.30529977573 0.29356633641 0.26007295584 0.20991299178 0.15070825141 0.091463270125 0.041229039404 0 0 
0.00097767947915 0.01704562208 0.040768477898 0.068529792669 0.096165953299 0.11953750522 0.13513960139 0.1406324215 0.13519961605 
0.11967607331 0.096425012141 0.068985173885 0.041547322464 0.018351255203 0 0 0 0 
0 0 0 0 0 0 0 0 0 
0 0 0 0 
