# vtk DataFile Version 5.1
vtk output
ASCII
DATASET STRUCTURED_POINTS
DIMENSIONS 16 16 1
SPACING 1 1 1
ORIGIN 0 0 0
POINT_DATA 256
SCALARS scalars double
LOOKUP_TABLE default
0 0 0 0 0 0 0 0 0 
0 0 0 0 0 0 0 0 -0.0032674437797 
-0.0013290610044 0.0026894331429 0.0079627215269 0.013522957672 0.018405015059 0.02179250634 0.02314122339 0.022261060692 0.019343811185 
0.014932150073 0.0098335804813 0.0049908479904 0.0013263929957 0 0 -0.0041963171881 0.0043390152742 0.018829766372 
0.036750732419 0.055118994781 0.070953476569 0.081729655841 0.085763182665 0.082465193578 0.072430722034 0.057346272168 0.039729283691 
0.022536473627 0.008695534898 0 0 -0.0050841564398 0.012992976331 0.042373759097 0.078148952288 0.11452611594 
0.14571751241 0.16682152222 0.17456743392 0.16781197898 0.14771254386 0.11755033782 0.082229153319 0.047523364833 0.019184563316 
0 0 -0.0060217583422 0.02315890213 0.069779171725 0.12617317008 0.18331536292 0.23219324505 0.26517558444 
0.27717061137 0.26639912837 0.2346652906 0.18708366682 0.13130335064 0.076345628158 0.031229263568 0 0 
-0.0069481577346 0.033259960897 0.096972991762 0.17378916402 0.25148370551 0.31785679541 0.3625806446 0.37876500118 0.36400306059 
0.32073869504 0.25589911852 0.17984884469 0.10482406028 0.043085671953 0 0 -0.0077381635442 0.041784527548 
0.11992590509 0.21397234434 0.3090004257 0.39012382507 0.44474276051 0.46445203627 0.44631650679 0.39331957504 0.31391662562 
0.22076199641 0.12880455921 0.053044189766 0 0 -0.00826169636 0.047476132356 0.13523888532 0.24077049704 
0.34734907972 0.438298942 0.49950749512 0.52156105614 0.50117299335 0.44168632242 0.35257451703 0.24801762045 0.14477263787 
0.059666367984 0 0 -0.0084239812069 0.049503461487 0.1406460294 0.25020647494 0.36083304974 0.45522403603 
0.5187379278 0.54160866332 0.52042702976 0.45866214669 0.36614394556 0.2575866779 0.15038074978 0.061993510726 0 
0 -0.0081890732998 0.04757718499 0.13535271184 0.24088211255 0.34744727165 0.43837794748 0.49956709507 0.52160531322 
0.50120811074 0.4417182316 0.35260682499 0.24805045963 0.1448027602 0.059688504387 0 0 -0.0075868238948 
0.041992361112 0.12015531851 0.21419062863 0.30918397092 0.39026163792 0.44483641064 0.46451262147 0.4463597137 0.39336016917 
0.31396375068 0.22081649301 0.12885910729 0.053086416025 0 0 -0.0067027800363 0.033589429244 0.097323956155 
0.1741050122 0.25172589598 0.31801042253 0.36265361981 0.37878209737 0.36399673701 0.32073899121 0.25592498603 0.17990304693 
0.1048931754 0.043145721271 0 0 -0.0056502004574 0.023642009036 0.070267459173 0.12657507611 0.18357331419 
0.23229116624 0.26513602975 0.27704385482 0.26624728927 0.23454506368 0.1870313735 0.13132575182 0.076419199318 0.031309364793 
0 0 -0.0045219235368 0.013694405033 0.043035180485 0.078625985882 0.11473656436 0.14564960848 0.16652663237 
0.17414094198 0.16736686903 0.14735093841 0.11733854576 0.082181499585 0.047599227381 0.019301747227 0 0 
-0.0033146115523 0.0053844994566 0.01973705419 0.037296728063 0.055190923858 0.070554494696 0.080963359717 0.084801504356 0.081505764707 
0.071651187604 0.056863636007 0.039572047023 0.022636227129 0.0089032961027 0 0 0 0 
0 0 0 0 0 0 0 0 0 
0 0 0 0 
