# vtk DataFile Version 5.1
vtk output
ASCII
DATASET STRUCTURED_POINTS
DIMENSIONS 16 16 1
SPACING 1 1 1
ORIGIN 0 0 0
POINT_DATA 256
SCALARS scalars double
LOOKUP_TABLE default
0 0 0 0 0 0 0 0 0 
0 0 0 0 0 0 0 0 -0.0051759468535 
-0.0032952627934 0.00092899091646 0.0065027191241 0.012360438085 0.017480428171 0.021015225232 0.022407113544 0.02146644516 0.018398777524 
0.013775851145 0.0084548613638 0.0034596184903 -0.00015374771154 0 0 -0.0051462528892 0.0077976232137 0.029026687258 
0.054876989102 0.081127937891 0.10360672256 0.1187985914 0.12436686607 0.1195010602 0.1050385795 0.083340622821 0.057940755404 
0.033019425591 0.012783744198 0 0 -0.0040598028533 0.025320121559 0.071390136831 0.12667351997 0.18243532615 
0.22998514236 0.26197919947 0.2735246619 0.26291758047 0.23190151528 0.18540684718 0.13080978795 0.076822680312 0.032181542881 
0 0 -0.0024326811382 0.04628890949 0.12142678838 0.21106871427 0.30123600119 0.37799069767 0.42954023873 
0.44802112007 0.43069059256 0.38034493349 0.30490036607 0.21619993954 0.12822697349 0.054994747098 0 0 
-0.00067559610724 0.067369783686 0.1714801586 0.29532995778 0.41973021838 0.52553069935 0.59652009582 0.62188418012 0.59784830237 
0.52825448529 0.42398537084 0.301322719 0.17949019681 0.077754102525 0 0 0.00087621531803 0.0853043452 
0.21394599616 0.36674158932 0.52009793243 0.65046023601 0.73788359051 0.76906062628 0.73934486015 0.65346208676 0.52480193043 
0.37339795917 0.2229047008 0.097033197198 0 0 0.0019671892886 0.097360635536 0.24240002582 0.41453242628 
0.5872255408 0.73398598566 0.83237814202 0.86743152824 0.833918143 0.7371534786 0.59219987105 0.42159442138 0.25194895707 
0.10994234886 0 0 0.0024368469889 0.10172492049 0.25255940976 0.43151098108 0.61101514644 0.76354690187 
0.86579639504 0.90220945486 0.86735404453 0.76675274655 0.61605521376 0.43867767725 0.26227071798 0.11455619522 0 
0 0.0022337100333 0.097766737132 0.2429271246 0.41515852098 0.58792667945 0.73473715851 0.83315377456 0.86820579565 
0.83466526621 0.73784808746 0.59281747992 0.42211206752 0.25234608006 0.1102019876 0 0 0.0014211244461 
0.086132842471 0.21501871577 0.3680128706 0.5215189252 0.65198055998 0.73945210289 0.77062584949 0.74085541668 0.65486729658 
0.52605263814 0.37444768624 0.22371131921 0.097561381957 0 0 0.00017318585482 0.068654857636 0.17313627087 
0.29728426226 0.42190720323 0.52785416365 0.59891364169 0.62427131095 0.60015267637 0.53040049001 0.42589903908 0.30293309475 
0.18073152801 0.078569536022 0 0 -0.0012363664311 0.048086629697 0.12372508481 0.21376188039 0.30421972597 
0.3811630757 0.43280088918 0.45127022354 0.43382849372 0.38327232517 0.30751888032 0.21841316247 0.12994245432 0.056128439869 
0 0 -0.0024437784276 0.027716768238 0.074413748766 0.13017797432 0.18628624531 0.23405685691 0.26615065022 
0.27767640084 0.26693018188 0.23565495054 0.18878021441 0.13368108278 0.079069142533 0.033682870629 0 0 
-0.0029857395039 0.010925731334 0.03288807615 0.059278687332 0.085908073167 0.10862169285 0.12391348999 0.12944956696 0.12441900553 
0.10965697148 0.087520741285 0.061537407162 0.035877264587 0.014734191537 0 0 0 0 
0 0 0 0 0 0 0 0 0 
0 0 0 0 
