# vtk DataFile Version 5.1
vtk output
ASCII
DATASET STRUCTURED_POINTS
DIMENSIONS 16 16 1
SPACING 1 1 1
ORIGIN 0 0 0
POINT_DATA 256
SCALARS scalars double
LOOKUP_TABLE default
0 0 0 0 0 0 0 0 0 
0 0 0 0 0 0 0 0 -0.0037620351547 
-0.0035377969524 -0.0026197592983 -0.0014138002779 -0.00020041659306 0.00081692987393 0.0014956967085 0.001752081226 0.0015632827142 0.00096958762369 
7.5109819649e-05 -0.00095073226392 -0.0018647655079 -0.0023209630901 0 0 -0.0014681380358 0.0087120591079 0.024183054907 
0.042393426832 0.060527338426 0.075849620018 0.086074573709 0.089688522681 0.086168928193 0.076062793484 0.06091159758 0.043036220306 
0.025220037301 0.010348479591 0 0 0.0030177747107 0.028451004659 0.065943198346 0.1097918914 0.1534090589 
0.19026759218 0.21486058025 0.22352067469 0.21497010946 0.19051512057 0.15385461468 0.11053351576 0.067127167508 0.030285707913 
0 0 0.0087631163029 0.052370638374 0.11597314265 0.19016937583 0.26393067868 0.32625722679 0.36783792479 
0.38245987959 0.36795141933 0.32651418245 0.26439354343 0.19093809645 0.11719247067 0.054238811186 0 0 
0.01473646876 0.076621274041 0.16641577831 0.27102487237 0.37498217746 0.46281510019 0.52140642878 0.54199545822 0.52151515988 
0.46306234088 0.37542942312 0.27176908689 0.16759460213 0.078418893728 0 0 0.019931891202 0.097376619433 
0.20943111405 0.33986932243 0.46946288303 0.57894657589 0.65197512703 0.67762653727 0.65207391498 0.57917289158 0.46987571842 
0.34056081406 0.21053052428 0.099054942094 0 0 0.023506616118 0.11140371992 0.2383825627 0.3861238974 
0.5328842126 0.65686233896 0.73955426069 0.76859241921 0.73964149501 0.6570643104 0.53325720994 0.38675545962 0.23939493731 
0.11295811679 0 0 0.024901928673 0.11654831497 0.24884286139 0.40272857947 0.55557531142 0.68468761797 
0.77079997294 0.80103468424 0.77087678949 0.68486770528 0.55591282734 0.40330781272 0.24978172047 0.11800280637 0 
0 0.023924822674 0.11205957137 0.23926615739 0.38721677114 0.5341567321 0.65827260257 0.74104910639 0.7701105321 
0.74111804364 0.65843616699 0.53446769542 0.38775772181 0.24015349016 0.1134486501 0 0 0.020776199963 
0.098703460082 0.21122343364 0.34209243662 0.47205827038 0.58182910413 0.65503508402 0.68073640951 0.65509859016 0.58198114058 
0.47235056466 0.34260675959 0.21207653051 0.10005339995 0 0 0.016020535514 0.078646726832 0.16916488581 
0.27445217282 0.37900231099 0.46729703868 0.52617659745 0.54684948759 0.52623575951 0.46743939206 0.37927797005 0.27494150276 
0.16998479905 0.079958890974 0 0 0.010501507853 0.055128581041 0.11974471392 0.19490925432 0.26953130873 
0.33253763547 0.37454819871 0.38930034755 0.37460201715 0.33266738776 0.26978364075 0.19536038445 0.12050841618 0.056367165774 
0 0 0.005217283937 0.031969584908 0.070809874083 0.1159824239 0.1608032959 0.19862896232 0.22384285427 
0.23269899135 0.22388828444 0.1987384933 0.16101683456 0.11636671177 0.071468055659 0.033055911361 0 0 
0.0011777999961 0.012991551119 0.030204051791 0.050192631681 0.069990399931 0.086676271437 0.097790589079 0.10169635062 0.09782340081 
0.086755179169 0.070144202356 0.050470803544 0.030686592361 0.013807077652 0 0 0 0 
0 0 0 0 0 0 0 0 0 
0 0 0 0 
