# vtk DataFile Version 5.1
vtk output
ASCII
DATASET STRUCTURED_POINTS
DIMENSIONS 16 16 1
SPACING 1 1 1
ORIGIN 0 0 0
POINT_DATA 256
SCALARS scalars double
LOOKUP_TABLE default
0 0 0 0 0 0 0 0 0 
0 0 0 0 0 0 0 0 -0.0023912899788 
-0.00053693233363 0.0031337621137 0.0079075683299 0.01292781162 0.017331799753 0.020386232874 0.021600707574 0.020802727886 0.018163041134 
0.014167110422 0.0095360377503 0.0051070185836 0.0016883490584 0 0 -0.0033066673275 0.0036791582268 0.015567713002 
0.030301586034 0.045427902919 0.058485588792 0.067386285009 0.070734732977 0.068041605419 0.059796962303 0.047392796382 0.032905082356 
0.01876565437 0.0073684361053 0 0 -0.0043850073207 0.0099095342317 0.033327872646 0.061941513746 0.091095591778 
0.11613030494 0.13309540407 0.13935314491 0.13397990108 0.11790599548 0.093772195589 0.065523446994 0.037799028331 0.015207025027 
0 0 -0.0056312637409 0.017111634973 0.053805645556 0.098364471053 0.14360936302 0.18236596136 0.2085566851 
0.21812494895 0.20965184142 0.18457188963 0.14695492949 0.10288651507 0.059539605854 0.024076121879 0 0 
-0.0069052766549 0.02419771549 0.074017269249 0.1343279973 0.19545820774 0.24775353208 0.28303975923 0.29586255132 0.28431558256 
0.25033115754 0.19938906897 0.13968791645 0.080904878222 0.032732639751 0 0 -0.0080108881974 0.030137230267 
0.091017400022 0.16459776353 0.23910574116 0.30279900877 0.34573905538 0.36129574707 0.34715309358 0.30566284073 0.24349217409 
0.17061969313 0.098833636167 0.039963126248 0 0 -0.0087609319602 0.034078348618 0.10232364728 0.1847383621 
0.26815070217 0.33942871133 0.38746012694 0.404832832 0.38895862257 0.34246867218 0.27282067472 0.19117842629 0.11073640989 
0.044748040024 0 0 -0.0090235926137 0.03545885842 0.1062814754 0.1917853812 0.27830942746 0.35223628148 
0.40204406446 0.42004798868 0.40356517905 0.35532471759 0.2830606924 0.19835129402 0.11488296107 0.046407886744 0 
0 -0.0087504482816 0.034083167421 0.10231001006 0.18469520548 0.26807181605 0.33931438601 0.38731710706 0.40467278509 
0.388795623 0.34231636484 0.27268981628 0.19107540355 0.11066310202 0.044703034719 0 0 -0.007985085421 
0.030150676853 0.090989337158 0.16450333021 0.2389313509 0.30254585189 0.34542278611 0.36094289832 0.34679535158 0.30533064157 
0.243209155 0.17039933457 0.098678955026 0.039869526548 0 0 -0.0068514010378 0.02423080266 0.073975718181 
0.13416695626 0.19515417741 0.24731004814 0.28248624634 0.29524750877 0.28369612844 0.24976145714 0.19891029436 0.1393220967 
0.080654275656 0.03258509323 0 0 -0.0055212370085 0.017190553381 0.053759023649 0.098116312331 0.14312202881 
0.18164818712 0.20766041288 0.21713319334 0.20866088363 0.18367178272 0.14621250317 0.10233471553 0.059176056374 0.023872187049 
0 0 -0.004160478098 0.01009096976 0.033302573674 0.061584045109 0.090348103493 0.11501218595 0.13169585469 
0.13781034403 0.13245173127 0.11653827832 0.092670757572 0.064735951921 0.037311375095 0.014957273201 0 0 
-0.0028488437459 0.0040780855165 0.015625524132 0.02981609095 0.044313790096 0.056783174673 0.065246154447 0.06838313652 0.065733571362 
0.057765715173 0.04580474169 0.031829191478 0.0181646843 0.0071174394362 0 0 0 0 
0 0 0 0 0 0 0 0 0 
0 0 0 0 
