# vtk DataFile Version 5.1
vtk output
ASCII
DATASET STRUCTURED_POINTS
DIMENSIONS 16 16 1
SPACING 1 1 1
ORIGIN 0 0 0
POINT_DATA 256
SCALARS scalars double
LOOKUP_TABLE default
0 0 0 0 0 0 0 0 0 
0 0 0 0 0 0 0 0 -0.0017673721685 
-0.001892336933 -0.0020748478557 -0.0024210701957 -0.0028856615049 -0.0033582928371 -0.003721036012 -0.0038864482575 -0.0038194795938 -0.0035437146512 
-0.0031316121986 -0.0026778898149 -0.0022536336669 -0.0018337001867 0 0 0.00091852516054 0.0077617304582 0.017413738969 
0.028389517726 0.039102507953 0.048032328493 0.053915749504 0.055918175349 0.053751770933 0.047718598897 0.038671619836 0.027901800071 
0.016974390144 0.0075502875674 0 0 0.0055530629123 0.023150730287 0.047894241303 0.07624029116 0.10411882356 
0.12750482889 0.14300390679 0.14835495869 0.14276865182 0.12704768845 0.10347019179 0.075455558063 0.04706739822 0.022435343702 
0 0 0.011310956422 0.041759532836 0.084483697844 0.13351230803 0.18183035955 0.22243391537 0.24938949904 
0.25873463988 0.24908082145 0.22182612756 0.18094511101 0.1323885784 0.083186100264 0.040389755272 0 0 
0.0172266997 0.060617974014 0.12141878986 0.19122884553 0.26008124044 0.31798252611 0.35644919185 0.36980913236 0.35607113871 
0.31723057174 0.25896486357 0.18976508522 0.11963518807 0.058555387053 0 0 0.022337516997 0.076756791702 
0.1529387329 0.24042228514 0.32673450657 0.39934260822 0.4475962104 0.46437001625 0.4471601904 0.39846920644 0.32542099179 
0.23866420723 0.15072846481 0.074079577817 0 0 0.025828820688 0.087660900627 0.17416375165 0.27349788929 
0.37151343869 0.45397785125 0.50878993941 0.52785120173 0.50831428116 0.45302088647 0.37006307864 0.27153357229 0.17165218793 
0.084547918309 0 0 0.027157894573 0.091652647972 0.181838227 0.28538883826 0.38756248486 0.47352600579 
0.53066525581 0.55053741727 0.5301733602 0.47253438475 0.38605443072 0.28333620513 0.17919634396 0.08835098157 0 
0 0.026136258802 0.088147249747 0.17482654496 0.27432763574 0.37249045859 0.45507079981 0.50995657161 0.52904130197 
0.50947413263 0.45409830134 0.37101190805 0.2723167826 0.17224300508 0.084929133515 0 0 0.022957785812 
0.077741512103 0.15428645018 0.2421167817 0.32873739631 0.40158983526 0.44999966927 0.46682406189 0.44955159074 0.40068832303 
0.32737175145 0.24027078389 0.15193749834 0.074858096057 0 0 0.018167770755 0.062121804889 0.12349315419 
0.19385740285 0.26320939137 0.32151067428 0.36023547762 0.37368102157 0.35984314603 0.32072411109 0.26202584103 0.19227542367 
0.12151599834 0.059761893634 0 0 0.012576784712 0.043804065073 0.087339869191 0.13717659361 0.18623717098 
0.227443556 0.25479266067 0.26427187005 0.25447214224 0.22680407422 0.18528388317 0.13592279085 0.085814860382 0.042065591506 
0 0 0.007131005777 0.025743013311 0.051588539324 0.081069890269 0.11001718226 0.13428520468 0.1503672153 
0.15592204983 0.15012872934 0.13381204538 0.1093196184 0.080170727801 0.050534396976 0.024623722955 0 0 
0.002756733638 0.01086545736 0.021980506546 0.034532879152 0.046772881553 0.056985004717 0.063725938121 0.066034515252 0.063574631854 
0.056686451298 0.046337661178 0.033983990591 0.021365115397 0.010277401329 0 0 0 0 
0 0 0 0 0 0 0 0 0 
0 0 0 0 
