# vtk DataFile Version 5.1
vtk output
ASCII
DATASET STRUCTURED_POINTS
DIMENSIONS 16 16 1
SPACING 1 1 1
ORIGIN 0 0 0
POINT_DATA 256
SCALARS scalars double
LOOKUP_TABLE default
0 0 0 0 0 0 0 0 0 
0 0 0 0 0 0 0 0 -0.0051473065441 
-0.0032585269982 0.00099444139118 0.0066163782894 0.012532630638 0.017709137353 0.02128666532 0.022699063929 0.021753290795 0.018657091352 
0.013989294147 0.0086171843181 0.0035745788377 -7.6840831456e-05 0 0 -0.0052432922691 0.0074645915127 0.028390456383 
0.053913849856 0.079857208306 0.10208719872 0.11712099852 0.12264254005 0.11784797157 0.1035663603 0.082136430214 0.057057582742 
0.032467858196 0.012527184159 0 0 -0.0043585933126 0.024408326065 0.069660236832 0.12403154846 0.1789117901 
0.22573203564 0.25725012835 0.26864040302 0.25822180545 0.22771301135 0.18197511077 0.12828028721 0.075216452778 0.031391353072 
0 0 -0.0029763310204 0.04468183259 0.118386104 0.20641550137 0.29501316578 0.37046113095 0.42115237454 
0.43934675707 0.42234414048 0.37289610992 0.29879337133 0.21169112074 0.12535010977 0.053558795163 0 0 
-0.0014678656902 0.065060699916 0.16711798527 0.2886499737 0.41078743368 0.51469937329 0.58444472581 0.60938939515 0.58582131009 
0.51751788227 0.41517958712 0.29481590505 0.17532920293 0.075663995911 0 0 -0.00012897494734 0.082396394196 
0.20845777457 0.35833529675 0.50883874373 0.63681706556 0.722667734 0.75331189565 0.72418269377 0.63992438597 0.51369622763 
0.36518767625 0.21764799783 0.09438406023 0 0 0.00081817359372 0.094049937273 0.23615557857 0.40496746418 
0.57441201962 0.71845622377 0.81505521388 0.84949948598 0.81665212096 0.72173575183 0.5795500573 0.41223990992 0.2459556454 
0.10691680595 0 0 0.0012352659623 0.098269440599 0.24604461236 0.42153281849 0.59764799385 0.74734554345 
0.84772352117 0.88350025939 0.84933889062 0.75066515425 0.60285463509 0.42891432473 0.25601344183 0.11139504233 0 
0 0.0010783516533 0.094445701854 0.23666789999 0.40557408723 0.57508912574 0.71917943436 0.81580008046 0.85024169208 
0.81736758724 0.72240077867 0.58014160394 0.4127361059 0.24633663734 0.10716601142 0 0 0.00040253321933 
0.083202915142 0.20949890021 0.3595647553 0.51020794686 0.63827701248 0.72416976569 0.75480786322 0.72562495997 0.64126592495 
0.51489101081 0.36619154262 0.21842026294 0.09489011359 0 0 -0.00064078072258 0.066309800808 0.16872184552 
0.29053451907 0.41287750431 0.51692113077 0.58672610244 0.61165970846 0.58801072615 0.51955709054 0.41699992235 0.29635021193 
0.17651393244 0.07644320533 0 0 -0.0018113386448 0.046426718012 0.12060636218 0.20900304375 0.29786399146 
0.37347703746 0.42423996252 0.4424156182 0.4253051115 0.37565993535 0.30126995571 0.21378970276 0.12698113636 0.054638960174 
0 0 -0.0027841667683 0.026732877714 0.072574497818 0.12738482947 0.18256965957 0.22957436887 0.26116673343 
0.27252656807 0.26197447357 0.23122765634 0.18514326428 0.13098791581 0.077344092657 0.032818420702 0 0 
-0.0031333078718 0.010501063035 0.032106694275 0.058108248962 0.084366836251 0.10677654849 0.1218717835 0.12734532613 0.12239532651 
0.10784701573 0.086030024688 0.060429789636 0.035166279912 0.014380114793 0 0 0 0 
0 0 0 0 0 0 0 0 0 
0 0 0 0 
