# vtk DataFile Version 5.1
vtk output
ASCII
DATASET STRUCTURED_POINTS
DIMENSIONS 16 16 1
SPACING 1 1 1
ORIGIN 0 0 0
POINT_DATA 256
SCALARS scalars double
LOOKUP_TABLE default
0 0 0 0 0 0 0 0 0 
0 0 0 0 0 0 0 0 -0.0046446905263 
-0.0029866675723 0.00054130155124 0.0050830636186 0.0097871198622 0.013862475902 0.016661802553 0.017761246519 0.017016462989 0.014582705327 
0.010894938828 0.0066122679221 0.0025395813483 -0.00045046166486 0 0 -0.0030755771692 0.010984587047 0.033094780737 
0.059579613706 0.086246796274 0.1089641922 0.12425366941 0.12980155066 0.12480197096 0.11007779105 0.087959695895 0.061942752533 
0.036175614908 0.014865464754 0 0 0.00030056130655 0.0329144399 0.082451845387 0.14117055509 0.20003181179 
0.25003986082 0.28358806607 0.29560354601 0.28431328929 0.25151338359 0.20229970309 0.14430132538 0.086534352572 0.038051539007 
0 0 0.0046503663365 0.05916007905 0.14091261796 0.23741991366 0.33398736056 0.41593962958 0.47084639527 
0.49040977226 0.47172583411 0.41772775672 0.33674287901 0.24123102378 0.1458959575 0.065456532638 0 0 
0.0091541275054 0.085572564342 0.19949128868 0.33369436751 0.46785644491 0.58164781271 0.65783526613 0.68490945091 0.65884012614 
0.58369276443 0.47101280773 0.33807113054 0.20523711087 0.092877656906 0 0 0.013054475016 0.10806496139 
0.24924610955 0.41537958355 0.58137587396 0.72212172574 0.81632075272 0.84974666259 0.81741632855 0.7243532528 0.58482574153 
0.42017562398 0.25556719618 0.11614958592 0 0 0.01573323801 0.12319809874 0.28261653109 0.47009667485 
0.65736789435 0.81612325683 0.92235372568 0.96001913812 0.92350022173 0.81846015084 0.66098525999 0.4751356584 0.28927774066 
0.13175515116 0 0 0.016786235434 0.12868448875 0.29456046476 0.48958187191 0.68435965606 0.84946423355 
0.95993303987 0.99908831112 0.96108716584 0.85181766798 0.68800530559 0.494665886 0.30129175254 0.13735018123 0 
0 0.016076072693 0.12372744949 0.28331556717 0.47094289165 0.65833318318 0.81717416085 0.9234522246 0.96112410186 
0.92456941705 0.8194524922 0.66186292616 0.47586576438 0.28983343695 0.132116253 0 0 0.013751162051 
0.10914060696 0.25066683156 0.41710029572 0.58334009547 0.72426175109 0.81855908113 0.85199902134 0.8195959947 0.72637593316 
0.58661411619 0.42166281789 0.25669887572 0.11688495768 0 0 0.010227093214 0.087228619576 0.20167908042 
0.33634640281 0.47088768537 0.58495486031 0.66129810328 0.6883963288 0.66221494137 0.58682346177 0.47377908582 0.34037001615 
0.20698577594 0.094014051865 0 0 0.0061345540874 0.061448262309 0.14393543713 0.24108884939 0.33818960637 
0.42053433254 0.47566611334 0.49526788721 0.47642844379 0.42208732266 0.34059052729 0.24442484789 0.14832398302 0.067035225786 
0 0 0.0022464263859 0.035904630823 0.086398867761 0.14596995241 0.20554673309 0.2560905102 0.28995213915 
0.30202764227 0.29053204164 0.25727145009 0.20737131251 0.1485026476 0.089725730476 0.040130082259 0 0 
-0.00059312051606 0.014764989496 0.03807134805 0.06564732861 0.093255264335 0.11669419853 0.13241660553 0.13805808214 0.13279325501 
0.11746111603 0.094439996169 0.067292008419 0.040233852367 0.017520740466 0 0 0 0 
0 0 0 0 0 0 0 0 0 
0 0 0 0 
