# vtk DataFile Version 5.1
vtk output
ASCII
DATASET STRUCTURED_POINTS
DIMENSIONS 16 16 1
SPACING 1 1 1
ORIGIN 0 0 0
POINT_DATA 256
SCALARS scalars double
LOOKUP_TABLE default
0 0 0 0 0 0 0 0 0 
0 0 0 0 0 0 0 0 -0.0044518457479 
-0.0027161616186 0.00086351278798 0.0054345210667 0.010150738404 0.014226989557 0.017021019726 0.018112396156 0.017357969106 0.014911779223 
0.011205406067 0.0068930466455 0.0027742115402 -0.00028285228984 0 0 -0.0027508192211 0.011434702416 0.033626267265 
0.060155636817 0.086840000027 0.10955703519 0.12483701456 0.13037187277 0.12535767577 0.11061523978 0.088469574269 0.062407406443 
0.036567909814 0.015149644293 0 0 0.00076990804284 0.033556462686 0.083202447046 0.14197769986 0.20085790805 
0.25086172695 0.28439465479 0.29639183658 0.28508297739 0.25226115665 0.20301395219 0.14495810394 0.087095261693 0.038464034973 
0 0 0.0052665973952 0.059993598203 0.14187841451 0.23845077005 0.33503597206 0.41697800357 0.47186258158 
0.49140234718 0.47269688314 0.41867532139 0.33765391476 0.24207584662 0.14662495021 0.065999572963 0 0 
0.0099054413095 0.086580026867 0.20065024579 0.3349237307 0.46910038361 0.58287451002 0.65903265263 0.68607833409 0.65998555367 
0.58481473936 0.47209757242 0.33908413807 0.20611852145 0.093540769011 0 0 0.013914232672 0.10921077334 
0.25055725625 0.41676385315 0.58277081634 0.72349282127 0.8176562925 0.85104974626 0.81869488712 0.72560933272 0.5860453983 
0.42132065225 0.2565695804 0.1169090317 0 0 0.01666192906 0.12443100891 0.28402250254 0.47157640238 
0.65885485194 0.81758145161 0.92377199843 0.9614024066 0.92485861653 0.81979735382 0.66228747636 0.4763625165 0.29035603151 
0.13257573411 0 0 0.01773564217 0.12994265218 0.29599281959 0.49108693277 0.68586980304 0.85094330048 
0.96137039875 1.0004898456 0.96246409541 0.85317455603 0.68932870731 0.49591495114 0.3023917032 0.13818897994 0 
0 0.016994867056 0.12494523822 0.28470192068 0.47239938382 0.65979424464 0.81860477585 0.92484219604 0.96247927982 
0.92590083375 0.82076470407 0.66314298396 0.47707409697 0.29089755653 0.13292761048 0 0 0.014590982045 
0.11025600345 0.25193859545 0.41843801846 0.58468326395 0.72557779767 0.81983819597 0.85324612854 0.82082078437 0.72758216436 
0.58778951639 0.42277078645 0.2576728645 0.11762589238 0 0 0.010948074767 0.088189941055 0.20277850805 
0.33750568011 0.47205395281 0.58609922277 0.6624112712 0.68948173737 0.66328015735 0.58787095836 0.4747975622 0.34132734485 
0.20782439216 0.094649193638 0 0 0.0067093508727 0.062219034597 0.14482075445 0.24202554964 0.33913448508 
0.42146327724 0.47657073361 0.496150033 0.47729330797 0.4229360324 0.34141320667 0.24519506942 0.14899533349 0.067540429632 
0 0 0.0026619110243 0.036465636105 0.087046508029 0.14665780408 0.20624258302 0.25677598598 0.29062036071 
0.30267924733 0.29117013782 0.25789618924 0.20797484062 0.1490651471 0.09021315404 0.040494011775 0 0 
-0.00033709909541 0.015112793471 0.038474661007 0.066077007739 0.093690813306 0.11712373888 0.13283548368 0.13846639282 0.13319266282 
0.11785143675 0.094816036044 0.067641146694 0.040534803867 0.017743866213 0 0 0 0 
0 0 0 0 0 0 0 0 0 
0 0 0 0 
