# vtk DataFile Version 5.1
vtk output
ASCII
DATASET STRUCTURED_POINTS
DIMENSIONS 16 16 1
SPACING 1 1 1
ORIGIN 0 0 0
POINT_DATA 256
SCALARS scalars double
LOOKUP_TABLE default
0 0 0 0 0 0 0 0 0 
0 0 0 0 0 0 0 0 -0.0046126177604 
-0.0029425494129 0.00059267027397 0.0051376940415 0.0098421845867 0.013916374869 0.016713989986 0.01781187612 0.01706591953 0.014631100939 
0.010941657638 0.0066556424774 0.0025767809475 -0.00042325236824 0 0 -0.0030206104981 0.011059367446 0.033181273642 
0.059671276159 0.086339072203 0.1090545445 0.12434126726 0.12988668562 0.12488530008 0.11015952413 0.088038852675 0.062016612248 
0.036239468436 0.01491276471 0 0 0.00038135203332 0.033023036255 0.08257643569 0.14130186771 0.20016353352 
0.25016858335 0.2837127981 0.29572487259 0.28443230129 0.25163052986 0.20241372979 0.14440845898 0.086627858496 0.038121753174 
0 0 0.0047579423482 0.0593032319 0.14107565554 0.23759081188 0.33415810741 0.41610604813 0.47100745845 
0.49056649213 0.47187986845 0.4178799169 0.33689173821 0.24137181125 0.14601988563 0.065550645586 0 0 
0.0092867179616 0.085747677919 0.19968957134 0.33390125864 0.46806241646 0.58184805539 0.65802880868 0.68509779234 0.65902553933 
0.58387648133 0.47119331461 0.33824278273 0.2053892239 0.092994150326 0 0 0.013207405837 0.10826588875 
0.24947267178 0.41561516973 0.58160976013 0.72234863823 0.81653982122 0.84995983931 0.8176264428 0.72456193151 0.58503144609 
0.42037203112 0.25574208609 0.11628430254 0 0 0.015899300819 0.12341558771 0.28286111971 0.47035043104 
0.65761934176 0.81636685247 0.92258870107 0.96024777736 0.92372575257 0.81868449133 0.66120688517 0.47534782557 0.28946724013 
0.13190163968 0 0 0.016956496178 0.12890716896 0.29481058295 0.48984107237 0.68461623947 0.8497126016 
0.96017249573 0.99932128819 0.96131706258 0.85204653501 0.68823165362 0.49488285641 0.30148581828 0.1375004329 0 
0 0.016240967438 0.12394317344 0.28355789217 0.47119399921 0.65858171357 0.81741468226 0.92368407048 0.96134964944 
0.9247919817 0.81967407819 0.66208209613 0.47607586424 0.29002134227 0.13226169438 0 0 0.013901689815 
0.10933791065 0.25088875926 0.41733047559 0.58356804499 0.72448242246 0.81877180711 0.85220593673 0.81980009963 0.72657902386 
0.58681482926 0.42185501142 0.25687050822 0.11701753034 0 0 0.010355901318 0.087398050442 0.20187013093 
0.33654490335 0.47108449164 0.58514551015 0.6614819266 0.68857508741 0.66239115102 0.58699859884 0.4739518985 0.34053514247 
0.20713282045 0.094127197016 0 0 0.0062367226911 0.06158333613 0.14408827193 0.24124801071 0.33834763676 
0.42068753196 0.47581384543 0.49541148751 0.47656986263 0.42222767387 0.34072872863 0.24455652626 0.14844078228 0.067124601743 
0 0 0.0023197911374 0.036002221451 0.086509718052 0.14608565507 0.2056617418 0.25620203074 0.29005964019 
0.30213205544 0.29063475782 0.25737324531 0.20747134786 0.14859768057 0.089809653052 0.040193871252 0 0 
-0.00054823150051 0.014825012746 0.038139726743 0.065718774196 0.09332625403 0.11676294651 0.13248276795 0.13812225195 0.1328563214 
0.11752357855 0.094501330253 0.067350176858 0.040285048013 0.017559433766 0 0 0 0 
0 0 0 0 0 0 0 0 0 
0 0 0 0 
