# vtk DataFile Version 5.1
vtk output
ASCII
DATASET STRUCTURED_POINTS
DIMENSIONS 16 16 1
SPACING 1 1 1
ORIGIN 0 0 0
POINT_DATA 256
SCALARS scalars double
LOOKUP_TABLE default
0 0 0 0 0 0 0 0 0 
0 0 0 0 0 0 0 0 -0.0048345038755 
-0.0032479546515 0.00023691752468 0.0047592184102 0.0094605803425 0.013542742286 0.016352132159 0.017460756324 0.01672290548 0.014295453154 
0.01061768213 0.0063549289209 0.0023189688193 -0.00061172863629 0 0 -0.003401923388 0.010538889124 0.032576958008 
0.059028042533 0.085688516231 0.10841471419 0.12371876464 0.12928059092 0.12429225606 0.10957919296 0.087478901268 0.061496401392 
0.035791699432 0.014582427775 0 0 -0.00018026826237 0.032264061282 0.081700023764 0.14037124719 0.19922251913 
0.24924195722 0.28280953093 0.29484364429 0.28356851664 0.25078383466 0.20159495703 0.1436449825 0.08596648747 0.037628516027 
0 0 0.0040090030656 0.058299716317 0.13992305301 0.2363707226 0.33292617618 0.41489321575 0.46982443905 
0.48941094846 0.47074537782 0.41676556167 0.33581105962 0.24035994818 0.14513796423 0.064886848943 0 0 
0.0083626610687 0.084517500837 0.19828282489 0.33241642284 0.46656570551 0.5803756315 0.65659250324 0.68369384483 0.65764537509 
0.58251822552 0.46987262779 0.33700172003 0.20430215055 0.092170248862 0 0 0.012140840678 0.1068523564 
0.24786145333 0.41391836545 0.57990192968 0.72066987872 0.8149025455 0.84835880704 0.81605101891 0.72300916988 0.58351847117 
0.41894633442 0.25448875578 0.11532981804 0 0 0.014740649131 0.12188422685 0.28111920599 0.4685188304 
0.65577787057 0.81455795794 0.92082495189 0.95852274863 0.92202725411 0.81700867825 0.65957165541 0.47380407191 0.28810696953 
0.1308626576 0 0 0.01576830887 0.12733865927 0.29302818876 0.48796846269 0.68273479613 0.84786533178 
0.95837178173 0.99756007049 0.95958239997 0.85033406489 0.68655933886 0.49330257316 0.3000917983 0.13643428002 0 
0 0.015090224034 0.12242375215 0.28183127558 0.46938027797 0.65675991157 0.81562649569 0.92194138426 0.95964541782 
0.9231134324 0.81801679292 0.66046338758 0.47454602938 0.28867181154 0.13122977157 0 0 0.012851415933 
0.10794892238 0.2493088988 0.41567020863 0.58190028809 0.72284574553 0.81717726034 0.85064706301 0.81826513026 0.72506388722 
0.58533547853 0.42045771721 0.25563915048 0.11607751813 0 0 0.0094575408969 0.086206443514 0.20051241503 
0.33511687834 0.46964975455 0.58373787225 0.66011119768 0.68723575825 0.66107303823 0.585698205 0.47268313201 0.33933815107 
0.20608000527 0.093325944777 0 0 0.0055246226101 0.060634804555 0.14300501902 0.24010758227 0.33720188456 
0.41956416071 0.47472094696 0.4943445788 0.47552059283 0.42119312337 0.33972013298 0.24360633344 0.14760717466 0.066492938504 
0 0 0.0018089284206 0.0353183904 0.085726985509 0.14526128573 0.20483428782 0.25539209829 0.28927311662 
0.30136533925 0.28988130017 0.25663054294 0.20674745831 0.14791637281 0.089213441813 0.039744368067 0 0 
-0.00086041443233 0.01440564907 0.037659331083 0.065213580865 0.092820743308 0.11627004716 0.13200583121 0.13765841806 0.13240078052 
0.11707413053 0.094062602587 0.066936874083 0.039923661025 0.017287906601 0 0 0 0 
0 0 0 0 0 0 0 0 0 
0 0 0 0 
