# vtk DataFile Version 5.1
vtk output
ASCII
DATASET STRUCTURED_POINTS
DIMENSIONS 16 16 1
SPACING 1 1 1
ORIGIN 0 0 0
POINT_DATA 256
SCALARS scalars double
LOOKUP_TABLE default
0 0 0 0 0 0 0 0 0 
0 0 0 0 0 0 0 0 -0.0046765064642 
-0.0030304186029 0.000490384269 0.0050289450208 0.0097326060862 0.013809148745 0.016610192344 0.017711186226 0.016967555548 0.01453482614 
0.010848690014 0.0065693011317 0.002502709145 -0.00047744426369 0 0 -0.0031301754479 0.010910265089 0.033008759089 
0.059488378129 0.086154870281 0.10887410567 0.12416626794 0.12971657248 0.1247187946 0.10999623783 0.087880763457 0.061869158206 
0.036112040056 0.014818405169 0 0 0.0002202254417 0.032806317364 0.082327601087 0.1410393609 0.19989993861 
0.24991073334 0.2834627424 0.29548154216 0.2841936281 0.251395719 0.20218535921 0.14419409704 0.086440938374 0.037981510692 
0 0 0.0045433082993 0.05901735904 0.14074970247 0.23724868028 0.33381577109 0.41577190872 0.47068370187 
0.49025128283 0.47157010015 0.41757415752 0.33659297726 0.24108964393 0.14577184448 0.065362504605 0 0 
0.0090220969938 0.085397810284 0.19929286226 0.33348663791 0.46764888406 0.58144531108 0.65763899375 0.68471818687 0.6586519044 
0.58350663348 0.47083048469 0.33789834789 0.20508450534 0.092761127319 0 0 0.012902127488 0.10786431258 
0.24901915366 0.41514270302 0.5811397327 0.72189170813 0.81609798588 0.84952954959 0.81720243078 0.72414130115 0.58461753634 
0.41997760633 0.25539153477 0.11601471866 0 0 0.015567765623 0.12298082114 0.28237136464 0.46984129909 
0.65711372375 0.81587596566 0.92211437891 0.95978585939 0.92327023102 0.81823194044 0.66076065642 0.47492154297 0.28908727034 
0.13160842717 0 0 0.016616557855 0.12846198119 0.29430968413 0.48932091367 0.68410015786 0.84921193323 
0.95968894575 0.99885041707 0.96085254228 0.85158469417 0.68777578736 0.49444682878 0.30109663079 0.13719965452 0 
0 0.015911740414 0.12351189357 0.28307260716 0.47069009559 0.65808185144 0.81692985938 0.92321591954 0.96089382694 
0.92434230787 0.81922695796 0.66164070869 0.47565365889 0.28964451726 0.13197054807 0 0 0.013601162529 
0.10894349645 0.25044439757 0.41686868575 0.58310973691 0.72403780808 0.81834248384 0.85178799658 0.81938793948 0.72616941518 
0.58641076629 0.42146890082 0.25652638598 0.11675217908 0 0 0.010098764598 0.087059423441 0.20148772155 
0.33614686534 0.47068906472 0.58476170801 0.66111129712 0.68821439443 0.6620356792 0.58664568491 0.47360425777 0.34020359404 
0.20683811355 0.093900789678 0 0 0.0060328000379 0.061313460903 0.1437825128 0.24092909772 0.33803044385 
0.4203795175 0.47551642545 0.49512219152 0.47628501133 0.42194524186 0.34045102705 0.24429236438 0.14820683753 0.066945830709 
0 0 0.0021733931964 0.035807322722 0.086288111119 0.1458540638 0.20543122748 0.25597821072 0.28984365769 
0.30192216264 0.29042830116 0.2571687895 0.20727065379 0.14840726586 0.089641707014 0.040066354955 0 0 
-0.00063778080646 0.014705208046 0.038003154927 0.065575965226 0.093184233106 0.11662529217 0.13235019824 0.13799362724 0.13272991546 
0.11739843938 0.094378538994 0.06723381721 0.040182716935 0.01748214675 0 0 0 0 
0 0 0 0 0 0 0 0 0 
0 0 0 0 
