# vtk DataFile Version 5.1
vtk output
ASCII
DATASET STRUCTURED_POINTS
DIMENSIONS 16 16 1
SPACING 1 1 1
ORIGIN 0 0 0
POINT_DATA 256
SCALARS scalars double
LOOKUP_TABLE default
0 0 0 0 0 0 0 0 0 
0 0 0 0 0 0 0 0 -0.0038504794985 
-0.0018119079004 0.0020109971499 0.0067594398597 0.011588255726 0.015718033166 0.018514371248 0.019564404958 0.018730667617 0.016170368288 
0.012316068393 0.007821875791 0.0034877381319 0.0001844905783 0 0 -0.0018212872211 0.012828547241 0.035388606225 
0.062182864241 0.089031662642 0.11182310751 0.1271008531 0.13256936161 0.12743380947 0.11251970616 0.090152880396 0.063818801748 
0.037655840459 0.015864762832 0 0 0.0019859299242 0.035370268452 0.085484340983 0.1445898305 0.2036688678 
0.25375604802 0.28727633642 0.29918261953 0.28771708838 0.25467868437 0.20515499027 0.14675939299 0.088490337893 0.039386919298 
0 0 0.0067148178577 0.062140678644 0.14456435561 0.24150842062 0.33830880889 0.42033147808 0.47518792555 
0.49461374245 0.47572417507 0.42145501378 0.34012115314 0.24415958437 0.148247563 0.067080925099 0 0 
0.011523455388 0.088964444805 0.20361600143 0.33828057789 0.47267324907 0.58651625803 0.66262792148 0.6895395107 0.66324347067 
0.58780734472 0.47475978886 0.34134151899 0.20788619478 0.094727628422 0 0 0.015635781512 0.11173405514 
0.2536790178 0.42027800591 0.58649065712 0.72726475433 0.82136352873 0.8546071729 0.82203801125 0.72868095465 0.58878363696 
0.42365125741 0.25840420197 0.11814936921 0 0 0.018420259402 0.12699687609 0.28718267063 0.47511693409 
0.66258440401 0.82134548124 0.92745624284 0.96492691208 0.92816542541 0.82283576647 0.665000772 0.4786792802 0.29218787501 
0.13382131366 0 0 0.01946593395 0.13245983084 0.29908267403 0.49453603533 0.68948902209 0.85458201377 
0.96491973837 1.0038762813 0.96563653524 0.85608897086 0.69193425328 0.49814481304 0.30416049031 0.13939657656 0 
0 0.018635992897 0.12732892799 0.28762215854 0.47565155954 0.66319799729 0.82201773776 0.92816302217 0.96564124364 
0.92885909401 0.82348115461 0.66557256824 0.4791557378 0.29255149769 0.13405908964 0 0 0.016086942879 
0.11242875141 0.25459897148 0.42139806714 0.58777753272 0.72867614026 0.82284860195 0.85610877748 0.82349621268 0.73003718242 
0.58998448625 0.42465119367 0.25916686678 0.11864779848 0 0 0.012249399554 0.090082585484 0.2050977138 
0.34008712978 0.47475269207 0.58880106301 0.66503539965 0.69197559658 0.66560913765 0.59000610511 0.47670447653 0.34295886478 
0.20911854976 0.095532445476 0 0 0.0077746041085 0.063772134151 0.14672732546 0.24415073874 0.34135874021 
0.42369191224 0.47873624742 0.49820805997 0.47921429225 0.42469526141 0.34298182072 0.24653418134 0.15005450341 0.068260529403 
0 0 0.0034592279885 0.037631405341 0.088480993492 0.14826010388 0.20792261159 0.25846181489 0.29226012977 
0.30423829883 0.29262493972 0.2592270205 0.20915919996 0.15007348883 0.091007896119 0.041031859183 0 0 
0.00017110659336 0.015857022614 0.039392565215 0.067104727965 0.094770783341 0.11820951826 0.13389312012 0.13947274218 0.13413166175 
0.11870957847 0.095578295179 0.068288379777 0.041043249788 0.018086801319 0 0 0 0 
0 0 0 0 0 0 0 0 0 
0 0 0 0 
