# vtk DataFile Version 5.1
vtk output
ASCII
DATASET STRUCTURED_POINTS
DIMENSIONS 16 16 1
SPACING 1 1 1
ORIGIN 0 0 0
POINT_DATA 256
SCALARS scalars double
LOOKUP_TABLE default
0 0 0 0 0 0 0 0 0 
0 0 0 0 0 0 0 0 -0.004411886554 
-0.0026572349337 0.00093753334455 0.0055197325291 0.010243476641 0.014323965477 0.01711933873 0.018209483733 0.017451432525 0.014999241835 
0.011284354839 0.0069607346552 0.0028276560141 -0.00024673962152 0 0 -0.0026864665913 0.011528866894 0.033743787375 
0.060290220336 0.086985876508 0.10970912804 0.12499093963 0.13052379118 0.12550404525 0.11075252123 0.088593957323 0.062514617294 
0.036653158313 0.015207757213 0 0 0.00085864404234 0.033685037701 0.083361680755 0.14215892059 0.20105336507 
0.25106476973 0.28459968348 0.2965940547 0.28527800446 0.25244457799 0.20318089285 0.14510291136 0.087211368746 0.038544055723 
0 0 0.0053782893806 0.060153934007 0.14207550183 0.23867368815 0.33527520153 0.41722558685 0.47211200423 
0.49164817174 0.47293420533 0.41889914577 0.33785855908 0.24225447929 0.14676934456 0.06610012969 0 0 
0.010036953311 0.086767333009 0.2008789913 0.33518103626 0.46937526762 0.58315801416 0.65931764498 0.68635902088 0.66025677976 
0.58507119212 0.47233301825 0.33929081312 0.20628676967 0.093658975311 0 0 0.014060737843 0.10941816734 
0.25080922971 0.4170460269 0.58307114485 0.72380167913 0.81796620507 0.85135479422 0.81898987321 0.72588883912 0.58630287973 
0.4215476998 0.25675545617 0.11704051826 0 0 0.016817200279 0.12464989435 0.28428747134 0.47187217894 
0.65916879987 0.81790362815 0.92409483167 0.96172002465 0.92516592193 0.82008898061 0.66255678491 0.47660076986 0.29055185732 
0.1327149139 0 0 0.017892559585 0.13016335737 0.29625944425 0.49138400351 0.68618461213 0.85126594242 
0.9616934229 1.0008075535 0.96277157825 0.85346661221 0.68959879897 0.49615434576 0.30258890603 0.13832949809 0 
0 0.017146062152 0.12515781684 0.28495861195 0.47268524497 0.66009702668 0.81891495955 0.92515265223 0.96278458344 
0.92619632497 0.82104543349 0.6634026962 0.47730439572 0.2910873551 0.13306290962 0 0 0.014729520497 
0.1104510782 0.25217441083 0.41870085016 0.58496182509 0.72586328881 0.82012400283 0.85352719808 0.82109276694 0.72784044928 
0.58802830439 0.42298233233 0.25784698932 0.11774980954 0 0 0.011068074553 0.088359464842 0.20298395911 
0.33773513742 0.47229753497 0.58634915953 0.66266166013 0.68972801712 0.6635183764 0.58809695145 0.47500616041 0.34151173802 
0.20797573455 0.094756500489 0 0 0.0068064389553 0.062356852231 0.14498840679 0.24221335737 0.33933433167 
0.42166869933 0.47677674617 0.4963527204 0.47748924773 0.42312164429 0.34158413108 0.24534567401 0.14911842724 0.067627233286 
0 0 0.0027334385492 0.03656775017 0.087171279188 0.1467980719 0.20639226002 0.25693015417 0.29077516264 
0.30283159987 0.29131732081 0.25803537921 0.20810266805 0.14917735307 0.090304410216 0.040557947942 0 0 
-0.00029214740341 0.015177264301 0.038553756215 0.066166218447 0.093786251193 0.11722222139 0.13293447911 0.138563849 0.13328675549 
0.11794028344 0.094897426383 0.067712340176 0.040592440837 0.017784028613 0 0 0 0 
0 0 0 0 0 0 0 0 0 
0 0 0 0 
