# vtk DataFile Version 5.1
vtk output
ASCII
DATASET STRUCTURED_POINTS
DIMENSIONS 16 16 1
SPACING 1 1 1
ORIGIN 0 0 0
POINT_DATA 256
SCALARS scalars double
LOOKUP_TABLE default
0 0 0 0 0 0 0 0 0 
0 0 0 0 0 0 0 0 -0.0048974174265 
-0.0033347413568 0.00013560209378 0.0046511866863 0.0093514037215 0.013435615372 0.016248205917 0.017359826122 0.016624320291 0.014199093169 
0.010524841773 0.006268942219 0.0022454193697 -0.00066536992288 0 0 -0.0035103806107 0.010389920819 0.032402749836 
0.058841124308 0.085497877663 0.10822573785 0.12353378514 0.12909994196 0.12411562685 0.1094070833 0.087313949613 0.061344364747 
0.035661882503 0.014487379535 0 0 -0.00034035589816 0.032045700041 0.08144510998 0.14009722589 0.19894186511 
0.24896228214 0.28253441538 0.29457405349 0.28330459395 0.25052682095 0.20134896429 0.14341836179 0.085772567726 0.037485540795 
0 0 0.0037952092645 0.058009942579 0.13958565885 0.23600803799 0.33255405368 0.41452138786 0.46945765449 
0.4890507583 0.47039235226 0.41642165685 0.3354818309 0.24005632567 0.14487736396 0.064693478374 0 0 
0.0080986218952 0.084161388374 0.19786921058 0.3319720994 0.46610954571 0.579919222 0.65614158185 0.68325043148 0.6572103728 
0.58209419222 0.46946639364 0.33662655259 0.20397924713 0.091929453772 0 0 0.011835891249 0.10644249861 
0.24738633618 0.41340836984 0.57937831459 0.7201456632 0.81438420179 0.84784867454 0.81555021531 0.72252068907 0.58305012931 
0.41851325941 0.25411520863 0.11505027871 0 0 0.014409249364 0.12143978055 0.28060466782 0.46796688417 
0.65521127942 0.81399061914 0.92026376272 0.95797020676 0.9214845704 0.81647908629 0.65906357246 0.47333380362 0.28770075456 
0.130558008 0 0 0.015428407516 0.12688325369 0.29250132676 0.48740355921 0.68215506353 0.84728490131 
0.95779763251 0.99699469482 0.95902698436 0.84979187088 0.68603893713 0.49282062389 0.29967517717 0.13612151354 0 
0 0.014761043271 0.12198265452 0.28132102543 0.46883334044 0.65619882688 0.81506495058 0.92138608511 0.95909868965 
0.92257632452 0.81749237976 0.65995992347 0.47407965351 0.28826860097 0.13092709735 0 0 0.012551040012 
0.10754595173 0.24884257563 0.41517045252 0.58138789552 0.72233330727 0.81667086824 0.85014871834 0.81777563647 0.72458592597 
0.58487653996 0.42003258794 0.25527175256 0.1158020304 0 0 0.0092007214699 0.085861162381 0.20011256059 
0.334688486 0.46921095965 0.58329960184 0.65967862544 0.68681041888 0.66065538979 0.58529035602 0.47229142511 0.3389753202 
0.2057666959 0.093091495189 0 0 0.0053211905799 0.060360487727 0.14268710574 0.23976725516 0.33685392599 
0.41921739457 0.47437939088 0.49400919032 0.47519141124 0.42087155214 0.33941108635 0.24331998792 0.14736011758 0.06630857985 
0 0 0.0016631363373 0.035121180526 0.085498417985 0.14501711489 0.2045855012 0.2551451342 0.28903069768 
0.30112780397 0.28964825963 0.25640264891 0.20652805233 0.14771279506 0.089037809452 0.039613674205 0 0 
-0.0009493724372 0.01428518452 0.037520021296 0.065065488565 0.092670843491 0.11612228309 0.13186163688 0.13751760447 0.13226265463 
0.11693869145 0.09393164826 0.066814853998 0.039818122969 0.01720939945 0 0 0 0 
0 0 0 0 0 0 0 0 0 
0 0 0 0 
