# vtk DataFile Version 5.1
vtk output
ASCII
DATASET STRUCTURED_POINTS
DIMENSIONS 16 16 1
SPACING 1 1 1
ORIGIN 0 0 0
POINT_DATA 256
SCALARS scalars double
LOOKUP_TABLE default
0 0 0 0 0 0 0 0 0 
0 0 0 0 0 0 0 0 -0.0045130227978 
-0.0028042206782 0.00075559346558 0.0053132322966 0.010021549966 0.014094185071 0.016887805569 0.01798122177 0.017230982215 0.014791326952 
0.011094485931 0.0067956110465 0.0026952331721 -0.00033764134716 0 0 -0.0028515388082 0.011291297989 0.033452040661 
0.059961176487 0.086633992057 0.10934609264 0.12462591429 0.13016411892 0.12515627684 0.11042356104 0.088292115967 0.062250361719 
0.036439372171 0.01505935553 0 0 0.00062765246703 0.033356440866 0.082961823878 0.14171130051 0.20057753754 
0.25057605602 0.28410963818 0.29611157174 0.28481085691 0.25200112798 0.20277168192 0.14474185329 0.086916311261 0.038336542079 
0 0 0.0050835198658 0.059739047602 0.14157499167 0.23811744624 0.3346874327 0.41662464044 0.47151112926 
0.49105706744 0.47236112093 0.41835320052 0.33735192026 0.24180405669 0.14639773103 0.06583562493 0 0 
0.009685778708 0.086277346063 0.20029219799 0.33453301078 0.46869414189 0.58246447438 0.65862598964 0.68567915271 0.65959685049 
0.58444051345 0.47174481241 0.33876440669 0.20584893173 0.093344250932 0 0 0.013665856209 0.10887078836 
0.25015740582 0.41632977147 0.58232151906 0.72304095093 0.81720917567 0.85061116783 0.81826736156 0.72519656927 0.58565462761 
0.42096451064 0.25626733184 0.1166870364 0 0 0.016395820633 0.12406832466 0.28359761324 0.47111677812 
0.65838061515 0.81710571254 0.92330204809 0.96094167412 0.92440915891 0.81936255528 0.66187460252 0.47598480123 0.29003406789 
0.13233808522 0 0 0.017464856898 0.12957438263 0.29556225579 0.49062206011 0.68539098575 0.85046365609 
0.96089704476 1.0000259253 0.96201134755 0.85273609913 0.68891167658 0.49553266034 0.30206509986 0.13794731202 0 
0 0.01673316302 0.124589335 0.28428589589 0.47195034041 0.65933188769 0.81814176918 0.92438537209 0.96203160933 
0.92546392475 0.82034150899 0.66274036231 0.47670491306 0.29058208467 0.13269416244 0 0 0.014351341485 
0.10992945522 0.25155628996 0.41802485321 0.58425742412 0.72515104455 0.81941695675 0.85283329307 0.82041799176 0.72719228054 
0.58741897503 0.4224314934 0.25738344812 0.11741220757 0 0 0.010741357032 0.087907135142 0.20244635506 
0.33714575982 0.47168217817 0.58572602808 0.66204251887 0.68912024913 0.66292767433 0.58753026619 0.47447449208 0.34103238377 
0.2075737013 0.094464933821 0 0 0.0065433037328 0.061990555786 0.14455117509 0.24173232362 0.3388306577 
0.42115756689 0.47626822174 0.49585337188 0.47700428015 0.42265724287 0.34114966872 0.24495546039 0.14879274375 0.067392498101 
0 0 0.0025407292429 0.036297730086 0.086847321159 0.14644018993 0.20601630107 0.2565476971 0.29039409687 
0.3024572755 0.29095408751 0.25768827729 0.20777901215 0.14888795978 0.090064262256 0.040386149174 0 0 
-0.00041251925008 0.015007658891 0.038349313617 0.065939517194 0.093547403679 0.11697873514 0.13269158161 0.13832518834 0.13305535151 
0.11771957453 0.094692242554 0.067529635955 0.040441638334 0.017676849683 0 0 0 0 
0 0 0 0 0 0 0 0 0 
0 0 0 0 
