# vtk DataFile Version 5.1
vtk output
ASCII
DATASET STRUCTURED_POINTS
DIMENSIONS 16 16 1
SPACING 1 1 1
ORIGIN 0 0 0
POINT_DATA 256
SCALARS scalars double
LOOKUP_TABLE default
0 0 0 0 0 0 0 0 0 
0 0 0 0 0 0 0 0 0.0020040578105 
0.0037368113817 0.0051147378819 0.0061366882488 0.0068349907574 0.0072508185245 0.0074203557548 0.0073667436748 0.007095990995 0.0065963921436 
0.0058417544553 0.0047995961128 0.0034473029982 0.0018040225455 0 0 0.0045331876556 0.008788509134 0.012602579614 
0.015861047808 0.018463374852 0.020315912581 0.02133815487 0.021472944637 0.020695121873 0.019015807417 0.016481947027 0.013173348728 
0.0092027183399 0.0047288637004 0 0 0.0075184292674 0.014904733156 0.021935373654 0.028316587878 0.033702277538 
0.037738107465 0.040115269753 0.040619904614 0.039167606756 0.035816572463 0.030757605125 0.024284171492 0.016750707245 0.0085320159196 
0 0 0.010701043437 0.021495904619 0.032117798673 0.042063317317 0.05068217407 0.057291046472 0.061291075175 
0.062268950603 0.06006498196 0.054797332089 0.046838848192 0.036750678141 0.025184121961 0.012767804687 0 0 
0.013721795101 0.027784833488 0.041892092324 0.055333528514 0.067150256199 0.076321863228 0.081951056867 0.08341893061 0.080488018581 
0.073337891167 0.062527908927 0.048892339754 0.033382765139 0.016879895149 0 0 0.016199966669 0.032959846942 
0.049963036579 0.066326569883 0.080829056514 0.092161647991 0.099171001876 0.10106154633 0.097528791518 0.088804664249 0.075607956998 
0.059005985496 0.040205459851 0.020299328087 0 0 0.017803888592 0.036317885966 0.055215434858 0.073499772178 
0.089774581619 0.10253791619 0.11046462297 0.11264040325 0.10871555945 0.098956874445 0.08418970812 0.065637017179 0.044675417022 
0.02253828587 0 0 0.018307862248 0.037381972963 0.056895213037 0.075813045425 0.092679119804 0.10592440493 
0.1141636699 0.11644089473 0.11239030818 0.10229058637 0.087003947192 0.067807086179 0.046134866048 0.023267973352 0 
0 0.017629234588 0.03597828497 0.054729062002 0.072891264647 0.089072870479 0.1017743483 0.10967157811 0.11185038877 
0.10796061052 0.098268009293 0.083596187661 0.065165237601 0.044347418377 0.022370064399 0 0 0.015840951181 
0.032262467309 0.04896564106 0.065080586466 0.079394208967 0.090602005265 0.097552239531 0.099449307633 0.095987725431 0.08739756981 
0.074394465136 0.058040365665 0.039533461798 0.019954440229 0 0 0.013157765883 0.026691323177 0.040332227289 
0.053390290214 0.064918088012 0.073900284124 0.079440693058 0.080919564871 0.078097818162 0.071152786157 0.060640096206 0.047387099677 
0.032333272607 0.016340562131 0 0 0.0098974510573 0.019943133803 0.029912465717 0.039328331962 0.047553065819 
0.053906744399 0.057789120961 0.058784073861 0.056729530888 0.051741890851 0.044191365346 0.034632616669 0.023702717159 0.012004851524 
0 0 0.0064208579573 0.012796083373 0.018961652739 0.024654297128 0.02953724215 0.033253449775 0.035486879923 
0.036017047835 0.034756216991 0.031762774213 0.027228950133 0.021446038262 0.014755591816 0.0075009391736 0 0 
0.0030551418283 0.0059779721541 0.0086839654473 0.01108561578 0.013079269326 0.014554977646 0.015414025023 0.015586133247 0.015041633982 
0.013796075889 0.011906727895 0.0094626423775 0.0065728701704 0.003362622534 0 0 0 0 
0 0 0 0 0 0 0 0 0 
0 0 0 0 
