# vtk DataFile Version 5.1
vtk output
ASCII
DATASET STRUCTURED_POINTS
DIMENSIONS 16 16 1
SPACING 1 1 1
ORIGIN 0 0 0
POINT_DATA 256
SCALARS scalars double
LOOKUP_TABLE default
0 0 0 0 0 0 0 0 0 
0 0 0 0 0 0 0 0 0.0032598449214 
0.0074371277526 0.012084702708 0.016741159348 0.020927919006 0.024194181149 0.02617176074 0.026619414874 0.025449866887 0.022741424889 
0.018737301599 0.013834260693 0.0085683824036 0.003629790079 0 0 0.0087241279588 0.022211127806 0.038979749802 
0.057042532187 0.074138144006 0.088050917925 0.096932632635 0.099560479961 0.095497811098 0.085152400293 0.069735325143 0.051121871439 
0.031628700932 0.013757960263 0 0 0.015967702461 0.042696612596 0.077241950682 0.11529956351 0.15184731173 
0.1819241132 0.20138483564 0.20749057846 0.19926576128 0.17762014509 0.14524557572 0.10627754013 0.065727852692 0.028766477619 
0 0 0.024111087835 0.066133815206 0.12142486253 0.18292854242 0.24232695759 0.29139851836 0.32330564252 
0.33355944599 0.32056547284 0.28579806625 0.23364544108 0.17087502349 0.10567101634 0.046348171557 0 0 
0.03204195992 0.089165120251 0.16502562172 0.24978872214 0.33181056011 0.39962172549 0.44377187053 0.45812629416 0.44051643223 
0.39292453526 0.32132191102 0.23502159412 0.1453598765 0.06381708042 0 0 0.038628882195 0.10841688762 
0.2015651345 0.30585144835 0.40678437739 0.49016526384 0.54443002063 0.56217558662 0.54080166032 0.48265592044 0.3949185251 
0.28895795339 0.17875963619 0.078516289362 0 0 0.042912828287 0.12104406342 0.22561381241 0.34278569952 
0.45614970687 0.54970222667 0.61053581932 0.63048462122 0.60669658387 0.54172121757 0.44345834115 0.32458070654 0.20082706571 
0.088220212154 0 0 0.044254866569 0.12515732654 0.2335863457 0.35514106688 0.47274074176 0.56975645154 
0.63282545963 0.65353184023 0.62894264899 0.56166968904 0.45984663009 0.33658693866 0.20823603185 0.091456109137 0 
0 0.042426879607 0.12008628563 0.22421647467 0.341003901 0.45406177586 0.54740316549 0.60812704248 0.62806688653 
0.60436945606 0.5395852735 0.44161328338 0.32311677683 0.19981446819 0.087703629436 0 0 0.03764285891 
0.10646880061 0.19871287565 0.30219839652 0.40248276091 0.48540643068 0.53942656021 0.55714641708 0.53596609401 0.47823158637 
0.39111318291 0.28595212078 0.17668848666 0.077462500623 0 0 0.030531892985 0.086168454543 0.16061148996 
0.2440961481 0.32505938052 0.3921042294 0.43583037838 0.45012862467 0.43283688799 0.38592738521 0.31533967112 0.23032752914 
0.14214568052 0.06218957867 0 0 0.022053500349 0.062019122518 0.11530685652 0.17496321349 0.23279654977 
0.2807071658 0.31195273332 0.32210192962 0.30957775791 0.27583101124 0.22518288377 0.16429179234 0.10120545657 0.044106084167 
0 0 0.013362105932 0.037409931718 0.06926249367 0.10477210051 0.13911356885 0.1675204011 0.18600669729 
0.191935712 0.18436530323 0.16416485022 0.13391190165 0.097561954485 0.059904355561 0.025891154908 0 0 
0.0056460055053 0.015764097201 0.028993580112 0.043609012451 0.057658617489 0.069227278542 0.076714077855 0.079057737512 0.075877399098 
0.067521899077 0.055029243166 0.039998486829 0.024390954495 0.010322241359 0 0 0 0 
0 0 0 0 0 0 0 0 0 
0 0 0 0 
