# vtk DataFile Version 5.1
vtk output
ASCII
DATASET STRUCTURED_POINTS
DIMENSIONS 16 16 1
SPACING 1 1 1
ORIGIN 0 0 0
POINT_DATA 256
SCALARS scalars double
LOOKUP_TABLE default
0 0 0 0 0 0 0 0 0 
0 0 0 0 0 0 0 0 -0.0020472128201 
-0.0011124699501 0.0022618656212 0.0071573175653 0.012482310049 0.017168763483 0.020340747452 0.021432796382 0.020253664477 0.017007426855 
0.012280859453 0.006992621126 0.002301315135 -0.00049919842241 0 0 -0.0019074656942 0.0068830059414 0.02409647033 
0.046239597028 0.069218308616 0.089013462903 0.10230154298 0.10691676964 0.102114547 0.08865664863 0.06873853735 0.045742809609 
0.023805689296 0.007249447633 0 0 -0.0001363036293 0.021801448899 0.060862104134 0.10967262199 0.15965038657 
0.20239403278 0.23098245273 0.24092558147 0.23067833489 0.20179484046 0.15878632918 0.10862071348 0.059789875568 0.021037288892 
0 0 0.0026065383877 0.040627743126 0.10589355971 0.1864020611 0.26824283049 0.33788064949 0.38429016289 
0.40041913708 0.38385929536 0.33700809695 0.26691692807 0.18462728672 0.10371145819 0.038140616939 0 0 
0.0056212850851 0.059945938703 0.15152543979 0.26364969388 0.37700887547 0.47297488269 0.53665039857 0.55873406212 0.53609978457 
0.47183539615 0.37521268096 0.26110873825 0.14813077033 0.055550243043 0 0 0.0082600685483 0.076451859615 
0.19029440573 0.32899973757 0.46859320278 0.58616957626 0.66381216654 0.69066786201 0.6631667884 0.58481222075 0.46639983713 
0.3257943818 0.18583269643 0.07037205869 0 0 0.010010916423 0.087435213753 0.21606752569 0.372339761 
0.52910321877 0.66062372287 0.7471427293 0.77700153216 0.74643973276 0.659129964 0.52665364581 0.36869679206 0.210895877 
0.080233140623 0 0 0.010552627531 0.091138142249 0.22486843245 0.38719148898 0.54983930296 0.68609840231 
0.77560591184 0.80647051601 0.77488731484 0.68456622776 0.54731480379 0.38341723619 0.21948072595 0.083591584941 0 
0 0.0097801136087 0.086958135265 0.21532600263 0.37133135699 0.52785475958 0.65919121711 0.74559922827 0.77542468195 
0.74490769647 0.65772231335 0.52544764378 0.36775578599 0.21025840182 0.079913558644 0 0 0.0078139351664 
0.075515822107 0.18881263329 0.32694800331 0.46601148337 0.58316719047 0.66054724363 0.68732077161 0.65992389285 0.58185687426 
0.46389705411 0.3238664937 0.18454245368 0.069731179738 0 0 0.0050035906595 0.058606708805 0.14932606796 
0.2605033427 0.37294341225 0.46815072746 0.53133556089 0.55325931373 0.53081597406 0.46707567847 0.37125142858 0.258120893 
0.1461747612 0.054596516354 0 0 0.0019211220902 0.039023883699 0.10306225609 0.18212437599 0.26249971045 
0.33088817263 0.37646818618 0.39231885028 0.37607607824 0.33009268787 0.26129008332 0.18051288612 0.10111826245 0.03692257151 
0 0 -0.00065641766996 0.020241945147 0.057617301421 0.10427847417 0.15199675977 0.19277252312 0.22003487549 
0.22952555132 0.21977825147 0.1922628814 0.15125381442 0.10336708413 0.05670511243 0.019712016849 0 0 
-0.0017430057732 0.0060137648307 0.020902109167 0.039838087918 0.059358051513 0.076109502153 0.087335122165 0.091241399365 0.08720994932 
0.075865421203 0.059016524338 0.039458992563 0.020638638545 0.0062511623582 0 0 0 0 
0 0 0 0 0 0 0 0 0 
0 0 0 0 
