# vtk DataFile Version 5.1
vtk output
ASCII
DATASET STRUCTURED_POINTS
DIMENSIONS 16 16 1
SPACING 1 1 1
ORIGIN 0 0 0
POINT_DATA 256
SCALARS scalars double
LOOKUP_TABLE default
0 0 0 0 0 0 0 0 0 
0 0 0 0 0 0 0 0 0.0014532996838 
0.0048296311267 0.0095454621358 0.014871254197 0.020010288039 0.024211745219 0.026874227485 0.027614258529 0.026298975252 0.02305813062 
0.018285452001 0.012624484074 0.0069352997086 0.0022737272504 0 0 0.0056242037449 0.019398575003 0.039195153525 
0.062009163173 0.084403759025 0.10304345888 0.11519006201 0.11906376926 0.1140426666 0.10072908763 0.080904799658 0.057357083065 
0.033557181722 0.013238403439 0 0 0.011941938916 0.041487973755 0.084227585742 0.13369686454 0.18241363081 
0.22308961873 0.24974824166 0.25851822437 0.24804801355 0.21963172056 0.17710877191 0.12647209065 0.075098069996 0.030665332729 
0 0 0.019417888325 0.067613923934 0.13746903492 0.21838115112 0.29803399716 0.36448307029 0.40804787578 
0.42255010166 0.40584816057 0.35996507507 0.29099137709 0.20856602345 0.12463563514 0.051554872677 0 0 
0.026863522016 0.093661161239 0.19051883286 0.30261024749 0.41270832025 0.50426403482 0.56413856251 0.58415979775 0.56153476139 
0.4988587357 0.40414770739 0.29043560339 0.17418440428 0.072498311617 0 0 0.033108402214 0.11558045156 
0.23515244259 0.37332205096 0.5086157854 0.62064647137 0.69362919424 0.71805841216 0.69074646414 0.6146011166 0.49890475514 
0.35928402625 0.21597011494 0.090184094304 0 0 0.037188338772 0.13002320684 0.26461060509 0.41993206443 
0.57162484066 0.6967837396 0.77804392826 0.80523744204 0.77501278191 0.69037883172 0.56123071388 0.40474012089 0.2436156463 
0.10188693648 0 0 0.038476818931 0.13480484484 0.2745147988 0.43569894503 0.59297677422 0.72257411701 
0.80661174127 0.83473453246 0.803553025 0.71609119969 0.58241297472 0.42019181161 0.25299158435 0.1058324296 0 
0 0.036755419169 0.12916287881 0.26334259558 0.41830157944 0.56970632567 0.69467081801 0.77583214229 0.80301437345 
0.77286194933 0.68838953129 0.55950023873 0.4033620446 0.24266243754 0.10140148898 0 0 0.032237049042 
0.11383977596 0.23256757305 0.36996787937 0.50462942224 0.61621390728 0.68895596292 0.71334814464 0.68619971096 0.61042338567 
0.49530265389 0.35644120124 0.21401866288 0.089195434034 0 0 0.025551701055 0.091014599041 0.18653704558 
0.29736837593 0.40638712346 0.49714247992 0.55655902666 0.57649196376 0.5541547404 0.49213596043 0.39842119454 0.28597557539 
0.17116025992 0.070980459904 0 0 0.017688518151 0.064061633362 0.13201101972 0.21104870706 0.28903114825 
0.35419045976 0.39698397175 0.41131442209 0.39506525169 0.35023044414 0.2828124087 0.20230271006 0.1204659566 0.049496184863 
0 0 0.0098885709046 0.037112600543 0.077259959858 0.12405847958 0.1703129012 0.20903284999 0.23448769028 
0.24296289217 0.23315849106 0.20630973091 0.16608716946 0.11821902518 0.069764301951 0.028118073072 0 0 
0.0035154788489 0.014470325022 0.030795849207 0.049853194704 0.068688459127 0.08444809884 0.0947899847 0.098189841671 0.094112371879 
0.083066758171 0.066563702753 0.046961140858 0.027191796108 0.010441814677 0 0 0 0 
0 0 0 0 0 0 0 0 0 
0 0 0 0 
