# vtk DataFile Version 5.1
vtk output
ASCII
DATASET STRUCTURED_POINTS
DIMENSIONS 16 16 1
SPACING 1 1 1
ORIGIN 0 0 0
POINT_DATA 256
SCALARS scalars double
LOOKUP_TABLE default
0 0 0 0 0 0 0 0 0 
0 0 0 0 0 0 0 0 -2.4823462454e-08 
-2.7620506585e-08 -2.9691293407e-08 -3.1149508019e-08 -3.2141029365e-08 -3.2759947299e-08 -3.3058070429e-08 -3.3058070429e-08 -3.2759947299e-08 -3.2141029365e-08 
-3.1149508019e-08 -2.9691293407e-08 -2.7620506585e-08 -2.4823462454e-08 0 0 -2.7620506585e-08 -2.904150282e-08 -3.0396140138e-08 
-3.1490022152e-08 -3.2292348899e-08 -3.2814341226e-08 -3.3071032341e-08 -3.307103234e-08 -3.2814341226e-08 -3.2292348899e-08 -3.1490022151e-08 -3.0396140138e-08 
-2.904150282e-08 -2.7620506585e-08 0 0 -2.9691293407e-08 -3.0396140139e-08 -3.1222833733e-08 -3.1978184138e-08 -3.2576428859e-08 
-3.2984076898e-08 -3.3189552838e-08 -3.3189552838e-08 -3.2984076897e-08 -3.2576428859e-08 -3.1978184138e-08 -3.1222833733e-08 -3.0396140138e-08 -2.9691293407e-08 
0 0 -3.114950802e-08 -3.1490022153e-08 -3.1978184139e-08 -3.2477313528e-08 -3.290223328e-08 -3.320524952e-08 -3.3361875115e-08 
-3.3361875115e-08 -3.320524952e-08 -3.2902233279e-08 -3.2477313527e-08 -3.1978184138e-08 -3.1490022152e-08 -3.114950802e-08 0 0 
-3.2141029367e-08 -3.2292348901e-08 -3.2576428861e-08 -3.2902233281e-08 -3.3199580084e-08 -3.3421066895e-08 -3.3538361325e-08 -3.3538361325e-08 -3.3421066895e-08 
-3.3199580083e-08 -3.290223328e-08 -3.257642886e-08 -3.22923489e-08 -3.2141029366e-08 0 0 -3.2759947301e-08 -3.2814341228e-08 
-3.29840769e-08 -3.3205249522e-08 -3.3421066896e-08 -3.3588344487e-08 -3.3678873772e-08 -3.3678873772e-08 -3.3588344487e-08 -3.3421066895e-08 -3.3205249521e-08 
-3.2984076899e-08 -3.2814341228e-08 -3.27599473e-08 0 0 -3.3058070431e-08 -3.3071032344e-08 -3.3189552841e-08 -3.3361875118e-08 
-3.3538361327e-08 -3.3678873773e-08 -3.3756005178e-08 -3.3756005178e-08 -3.3678873772e-08 -3.3538361326e-08 -3.3361875116e-08 -3.318955284e-08 -3.3071032343e-08 
-3.3058070431e-08 0 0 -3.3058070432e-08 -3.3071032344e-08 -3.3189552841e-08 -3.3361875118e-08 -3.3538361327e-08 -3.3678873773e-08 
-3.3756005178e-08 -3.3756005178e-08 -3.3678873772e-08 -3.3538361326e-08 -3.3361875116e-08 -3.318955284e-08 -3.3071032343e-08 -3.3058070431e-08 0 
0 -3.2759947301e-08 -3.2814341229e-08 -3.2984076901e-08 -3.3205249523e-08 -3.3421066897e-08 -3.3588344488e-08 -3.3678873772e-08 -3.3678873772e-08 
-3.3588344487e-08 -3.3421066896e-08 -3.3205249521e-08 -3.29840769e-08 -3.2814341228e-08 -3.27599473e-08 0 0 -3.2141029367e-08 
-3.2292348902e-08 -3.2576428862e-08 -3.2902233281e-08 -3.3199580085e-08 -3.3421066896e-08 -3.3538361325e-08 -3.3538361325e-08 -3.3421066895e-08 -3.3199580084e-08 
-3.290223328e-08 -3.2576428861e-08 -3.2292348901e-08 -3.2141029366e-08 0 0 -3.114950802e-08 -3.1490022154e-08 -3.197818414e-08 
-3.2477313528e-08 -3.290223328e-08 -3.3205249521e-08 -3.3361875115e-08 -3.3361875115e-08 -3.320524952e-08 -3.290223328e-08 -3.2477313527e-08 -3.1978184139e-08 
-3.1490022153e-08 -3.114950802e-08 0 0 -2.9691293408e-08 -3.0396140139e-08 -3.1222833734e-08 -3.1978184139e-08 -3.257642886e-08 
-3.2984076898e-08 -3.3189552838e-08 -3.3189552838e-08 -3.2984076898e-08 -3.2576428859e-08 -3.1978184138e-08 -3.1222833733e-08 -3.0396140139e-08 -2.9691293407e-08 
0 0 -2.7620506586e-08 -2.9041502821e-08 -3.0396140139e-08 -3.1490022152e-08 -3.22923489e-08 -3.2814341226e-08 -3.3071032341e-08 
-3.3071032341e-08 -3.2814341226e-08 -3.2292348899e-08 -3.1490022152e-08 -3.0396140138e-08 -2.904150282e-08 -2.7620506585e-08 0 0 
-2.4823462455e-08 -2.7620506585e-08 -2.9691293407e-08 -3.1149508019e-08 -3.2141029365e-08 -3.2759947299e-08 -3.3058070429e-08 -3.3058070429e-08 -3.2759947299e-08 
-3.2141029365e-08 -3.1149508019e-08 -2.9691293407e-08 -2.7620506585e-08 -2.4823462455e-08 0 0 0 0 
0 0 0 0 0 0 0 0 0 
0 0 0 0 
