# vtk DataFile Version 5.1
vtk output
ASCII
DATASET STRUCTURED_POINTS
DIMENSIONS 16 16 1
SPACING 1 1 1
ORIGIN 0 0 0
POINT_DATA 256
SCALARS scalars double
LOOKUP_TABLE default
0 0 0 0 0 0 0 0 0 
0 0 0 0 0 0 0 0 -0.0017730143754 
-0.0027569094236 -0.0029896873978 -0.0026521286409 -0.0019912465438 -0.0012630241474 -0.00068591256093 -0.00040499060331 -0.0004690848601 -0.00082302144924 
-0.0013159253637 -0.001724912569 -0.0017922973946 -0.0012742205895 0 0 -0.0035532941704 -0.004836267944 -0.0041530465894 
-0.0020890839216 0.00063049567495 0.0032733905729 0.0052194889447 0.0060572842431 0.0056467973713 0.0041412531584 0.0019645627269 -0.00025292911802 
-0.001773388774 -0.0018759343538 0 0 -0.0053934126624 -0.006455244233 -0.0039472004224 0.00094973065489 0.0068417495039 
0.012342798061 0.016285458266 0.017895979185 0.016910001698 0.013612870236 0.0087986791467 0.0036534089343 -0.00042244756279 -0.0020295778793 
0 0 -0.0072165666437 -0.0077240822586 -0.0028516160957 0.0055155139578 0.01520946129 0.02409469423 0.030379107179 
0.032876223181 0.031179900752 0.025725647705 0.017729362507 0.00901238978 0.0017383928885 -0.0018999458938 0 0 
-0.0088782061811 -0.0086912601877 -0.0013484511256 0.010557782436 0.024090249866 0.036372386658 0.044996094211 0.048368453601 0.045943775249 
0.038305437539 0.027085097563 0.014731697468 0.0041658197647 -0.0016269884137 0 0 -0.010212411887 -0.0093710310679 
0.0001171529918 0.015058365871 0.031864615265 0.047034403477 0.057641067783 0.061749893639 0.058697961403 0.049193140523 0.035217146792 
0.019748032946 0.0063460407756 -0.0013305902933 0 0 -0.0110697582 -0.0097608987499 0.0011842706955 0.018169132851 
0.037171375817 0.054273465342 0.066204062107 0.070801526558 0.067325251011 0.056565975086 0.040738269923 0.023172470744 0.0078554431541 
-0.001104740731 0 0 -0.011346459801 -0.0098524877408 0.0016194899478 0.019330599849 0.03910672327 0.056885923709 
0.06927779687 0.074042602894 0.07041320126 0.05920920363 0.042725953545 0.024416224787 0.008415796236 -0.001009261106 0 
0 -0.011002669576 -0.0096370840315 0.0013474168009 0.018352166281 0.037357460246 0.054451335443 0.066368756846 0.070953070838 
0.067465966036 0.056697381746 0.040858621197 0.023275800005 0.0079326181187 -0.0010631356216 0 0 -0.010067871804 
-0.0091060069398 0.00046288926571 0.015441269232 0.032248050955 0.04739510918 0.057970439851 0.062050669427 0.058977877297 0.04945770459 
0.035463817245 0.019963823956 0.0065098062703 -0.0012413444988 0 0 -0.0086321579497 -0.0082452547812 -0.00077657962321 
0.011177190702 0.024694301106 0.036924537543 0.045487416197 0.04881073566 0.046357392852 0.038705705763 0.027471074728 0.015081096565 
0.0044386699839 -0.0014753751661 0 0 -0.0068229181317 -0.0070230045331 -0.0019752800302 0.0064343210448 0.016070672783 
0.024847223086 0.03102059722 0.033439643969 0.031711911342 0.026262565338 0.018276934619 0.0095353679549 0.0021650159334 -0.0016555878149 
0 0 -0.0047659428919 -0.0053669233541 -0.0026336124736 0.0022680032116 0.0080112088073 0.013298062792 0.017044149703 
0.018533882857 0.017524090618 0.014280691316 0.0095430951246 0.0044217274491 0.00024385814958 -0.001630380156 0 0 
-0.002525381781 -0.0031251199024 -0.0021816242993 -0.00021784803062 0.0021735841853 0.0044137702142 0.0060195967989 0.0066726983897 0.0062654182001 
0.0049171152348 0.0029585150232 0.00088664508755 -0.0007023052012 -0.0011898045411 0 0 0 0 
0 0 0 0 0 0 0 0 0 
0 0 0 0 
