# vtk DataFile Version 5.1
vtk output
ASCII
DATASET STRUCTURED_POINTS
DIMENSIONS 16 16 1
SPACING 1 1 1
ORIGIN 0 0 0
POINT_DATA 256
SCALARS scalars double
LOOKUP_TABLE default
0 0 0 0 0 0 0 0 0 
0 0 0 0 0 0 0 0 0.0016744603317 
0.0022112700338 0.0021569391777 0.0015961251636 0.00074531282506 -0.00013592403326 -0.00081253637572 -0.0011233398463 -0.0010113114328 -0.00053328371557 
0.00015182896031 0.00081605004841 0.0012159296157 0.0011673619011 0 0 0.0052516286147 0.010104898175 0.015619105411 
0.021218212548 0.026322044515 0.030387161455 0.032965200759 0.03375948113 0.032665381221 0.029785524506 0.025416893242 0.020013337484 
0.014133155582 0.008387144208 0 0 0.010222267421 0.02142133541 0.035266464358 0.050184031369 0.064363002584 
0.076006616687 0.083594788263 0.086111219168 0.083196933629 0.075205007156 0.063147805917 0.048545833144 0.033203858305 0.01895308266 
0 0 0.015926810102 0.034564766028 0.058232409501 0.084176832769 0.10912129519 0.12977124396 0.14332346622 
0.14789927091 0.14283463323 0.12878254819 0.1076119516 0.08211905292 0.055596020427 0.031324218021 0 0 
0.021564795172 0.047623106877 0.081112257153 0.11809901507 0.15383533136 0.1835207802 0.20306096358 0.20970894027 0.20249340028 
0.18236909116 0.15206683205 0.11566578658 0.0779524543 0.043662532454 0 0 0.026326787827 0.058673337818 
0.10049350847 0.14685278292 0.1917532497 0.22911424455 0.25374312252 0.26215420062 0.25311460049 0.22783563847 0.18978110937 
0.1441209727 0.096911593674 0.054123491965 0 0 0.029523481134 0.066081982068 0.11348188611 0.16611887756 
0.21715822928 0.25966165926 0.28770055249 0.297294032 0.28703378182 0.25830292661 0.2150562903 0.16319447643 0.10962416684 
0.061142305203 0 0 0.030693890468 0.068757951658 0.11814565395 0.17301606983 0.22623825407 0.27056993581 
0.29982137725 0.30983585259 0.29914260443 0.26918551198 0.22409335467 0.17002553513 0.11418970958 0.063675013279 0 
0 0.029676910062 0.066320592068 0.11381182088 0.16654167874 0.21766781705 0.26024290318 0.28832979442 0.29794141856 
0.28766684564 0.25889058936 0.21557238094 0.16361997795 0.10994771727 0.061358949469 0 0 0.026635481311 
0.059157700403 0.1011695349 0.14772632729 0.19281307486 0.23032877214 0.25506164534 0.26351218261 0.25444177576 0.22906504628 
0.1908570277 0.14500396241 0.097579533189 0.054568519727 0 0 0.022029219082 0.048364233279 0.08216464718 
0.11947934813 0.15552946137 0.18547783376 0.20519566804 0.21191134484 0.20464359878 0.18435359779 0.15379296203 0.11707078491 
0.079005207394 0.044357468312 0 0 0.016538366352 0.035569611828 0.059700446966 0.086148025192 0.11158302699 
0.13264844763 0.14648299265 0.15116671441 0.1460194574 0.13170592964 0.11013129405 0.084143657036 0.057089962166 0.032295152996 
0 0 0.010948048815 0.02267699248 0.037187956504 0.052856990072 0.067784370449 0.080069097555 0.088095197387 
0.090779050905 0.087736186666 0.079340335803 0.066665390482 0.051320016018 0.035202614477 0.020218925526 0 0 
0.0060054617804 0.011548660456 0.018010283123 0.024726947322 0.030968316194 0.036018096876 0.039271338243 0.040322833514 0.039028044747 
0.035525020788 0.030213492429 0.023695365398 0.016688681156 0.0099344509176 0 0 0 0 
0 0 0 0 0 0 0 0 0 
0 0 0 0 
