# vtk DataFile Version 5.1
vtk output
ASCII
DATASET STRUCTURED_POINTS
DIMENSIONS 16 16 1
SPACING 1 1 1
ORIGIN 0 0 0
POINT_DATA 256
SCALARS scalars double
LOOKUP_TABLE default
0 0 0 0 0 0 0 0 0 
0 0 0 0 0 0 0 0 -0.006445129284 
-0.0068813984738 -0.0065302843334 -0.0058111443373 -0.0049901453913 -0.0042413999208 -0.0036754947919 -0.0033515967751 -0.0032818970222 -0.0034328060369 
-0.0037244014066 -0.0040271674989 -0.0041522853054 -0.0038276973529 0 0 -0.004835782553 0.0053242357649 0.021223998789 
0.040150707032 0.059119170422 0.075236485462 0.086089623671 0.090083722267 0.08667135245 0.076433444469 0.060997948345 0.042809353198 
0.024787220217 0.0099312604714 0 0 -0.0010649551199 0.025207507269 0.064431305352 0.11054874784 0.15656902812 
0.19557176811 0.22172277108 0.23114098888 0.22248003605 0.19713295006 0.15902796316 0.11404680024 0.069155758219 0.031384394871 
0 0 0.0039507792998 0.049368703781 0.11616082432 0.19435352378 0.27225665202 0.33821735627 0.38237726707 
0.39816434074 0.38329087513 0.34010482796 0.27524064318 0.19862303673 0.12197612235 0.05706557465 0 0 
0.0092486872647 0.073898719534 0.16830858095 0.27859851155 0.38838897363 0.48130232113 0.54346096317 0.56560438393 0.54450406753 
0.4834616317 0.39181479199 0.28352670216 0.17507356625 0.082951787317 0 0 0.013913635335 0.094934126374 
0.21280691902 0.3503429378 0.48718976298 0.60296621862 0.68038847795 0.70791725532 0.68152641803 0.60532574122 0.49094409625 
0.35576743171 0.2202996331 0.10504711523 0 0 0.017189491816 0.10922095812 0.24283615291 0.39863342451 
0.55360417806 0.68469031322 0.77233019464 0.8034605099 0.7735215552 0.68716341435 0.55754703735 0.40434720127 0.25076111005 
0.11997683474 0 0 0.018579673713 0.1145963554 0.25385310688 0.4161669485 0.57759093503 0.71412086844 
0.80538975356 0.83779521674 0.80658863102 0.71661085994 0.58156425656 0.4219324029 0.26186405824 0.12549452134 0 
0 0.01791561648 0.11031111234 0.24427859544 0.40040211454 0.55565421494 0.68695627925 0.77472815051 0.80589344848 
0.77588729692 0.68936338439 0.55949418557 0.40597154029 0.25201193607 0.12082158025 0 0 0.015379690644 
0.097141669896 0.21573795675 0.35394937687 0.49138271508 0.60761194174 0.68531258798 0.71291669736 0.68638687936 0.60984101318 
0.4949335029 0.35908789181 0.22285018264 0.10676566139 0 0 0.01147746293 0.077272953119 0.17281697554 
0.28418048264 0.3949142103 0.4885627022 0.55117754775 0.57344831664 0.55212713364 0.49053023183 0.39804044884 0.28868692493 
0.17901896514 0.085598644647 0 0 0.0069627064529 0.053968665403 0.12236925853 0.20211611193 0.28140749684 
0.34846415079 0.39331230211 0.40929876757 0.39410485089 0.35010323262 0.28400306423 0.20583771542 0.12745054786 0.060711410374 
0 0 0.0027263961496 0.031077821146 0.072478884884 0.12076018186 0.16875466636 0.20934026297 0.23649878894 
0.24622043844 0.23711044696 0.21060260643 0.17074601663 0.1235978708 0.076316455316 0.036095871689 0 0 
-0.00033274596137 0.012450071146 0.031233181633 0.053132681665 0.074882275545 0.09326767043 0.10558464568 0.1100360484 0.10599965721 
0.094122485597 0.076225810962 0.055035652397 0.03378161683 0.015729303185 0 0 0 0 
0 0 0 0 0 0 0 0 0 
0 0 0 0 
