# vtk DataFile Version 5.1
vtk output
ASCII
DATASET STRUCTURED_POINTS
DIMENSIONS 16 16 1
SPACING 1 1 1
ORIGIN 0 0 0
POINT_DATA 256
SCALARS scalars double
LOOKUP_TABLE default
0 0 0 0 0 0 0 0 0 
0 0 0 0 0 0 0 0 -0.0026371267199 
-0.0034796067446 -0.0027104781558 -0.00080420086471 0.0016248288312 0.0039475666166 0.0056282383887 0.0063101304548 0.0058714120371 0.0044448425347 
0.0023992642219 0.00028576026723 -0.0012436113719 -0.0015312410831 0 0 -0.0047681841183 -0.0038704443059 0.0017335918291 
0.010396793855 0.020120149305 0.028892720055 0.035010421446 0.037338679437 0.035485840442 0.029864215359 0.021630654916 0.012515337903 
0.0045627348727 -0.00018099246891 0 0 -0.006599786481 -0.0019914411192 0.011607298873 0.030810749171 0.051623679625 
0.070062834091 0.082762870484 0.0874840697 0.083449877549 0.071465614824 0.053801227353 0.033855315586 0.015649008385 0.0032206463328 
0 0 -0.0081896146332 0.0012791784273 0.024660044147 0.056513694099 0.090514179012 0.12038700346 0.14084117804 
0.14835687189 0.14171100719 0.12216207707 0.093266517663 0.060354158635 0.029741085305 0.007796550638 0 0 
-0.0095185021294 0.0050372385194 0.038371665898 0.08298761275 0.13023631392 0.17156600092 0.19977434963 0.21007163868 0.20079158937 
0.1736413518 0.13345258599 0.087471525869 0.044296284436 0.012623952664 0 0 -0.010532841162 0.0084336273027 
0.050281341622 0.10576593559 0.16427228273 0.21532393967 0.25010465922 0.26275294051 0.25122845093 0.21761677443 0.16782577988 
0.11072023727 0.056828148012 0.016819958463 0 0 -0.011173169459 0.010771659577 0.058328658372 0.12108504954 
0.18711369878 0.24465575694 0.28382057271 0.29803356515 0.28500569271 0.24707449259 0.19086430428 0.1263180494 0.065250634139 
0.019650589334 0 0 -0.011393530566 0.011596143642 0.061148181793 0.12643961933 0.19508585011 0.25488285449 
0.29556810498 0.31032072862 0.29676610022 0.257329293 0.19888307902 0.13174475133 0.068177351407 0.020630352798 0 
0 -0.011172278343 0.010756016191 0.058269109821 0.1209553222 0.18689864816 0.24435725513 0.28345804668 0.29763963429 
0.28461851774 0.24672911359 0.19058543313 0.12611646969 0.065124474324 0.019591189405 0 0 -0.010513632992 
0.0084297111942 0.05018851812 0.10552162507 0.16384030721 0.21470750226 0.24934697484 0.26192690184 0.25041904691 0.21690129644 
0.16725725098 0.11031894874 0.056584488344 0.016708518882 0 0 -0.0094386437861 0.0051108328056 0.038308147058 
0.082664896564 0.1295842074 0.17058840341 0.19854859576 0.20872847996 0.19948264496 0.1725027403 0.13257410388 0.086880139189 
0.04396053362 0.012481254607 0 0 -0.0079629826181 0.0015611321807 0.024747914188 0.056182764947 0.089638039948 
0.11897090354 0.13901658807 0.14634495468 0.13976638738 0.12051052638 0.092051113064 0.059604132765 0.029375826404 0.0076729499054 
0 0 -0.0060550688229 -0.0012517224434 0.012071273282 0.030598017681 0.050518257953 0.068076757188 0.080118273789 
0.084548759294 0.080643802169 0.069158043356 0.052219666119 0.033027262036 0.01539735019 0.0032342020546 0 0 
-0.0035556614754 -0.0022022154177 0.0029746322459 0.010518244302 0.018773409844 0.026114529703 0.031178009711 0.03306002418 0.031449038181 
0.026673115538 0.019655439231 0.011786368958 0.0047358588278 0.0002484920473 0 0 0 0 
0 0 0 0 0 0 0 0 0 
0 0 0 0 
