# vtk DataFile Version 5.1
vtk output
ASCII
DATASET STRUCTURED_POINTS
DIMENSIONS 16 16 1
SPACING 1 1 1
ORIGIN 0 0 0
POINT_DATA 256
SCALARS scalars double
LOOKUP_TABLE default
0 0 0 0 0 0 0 0 0 
0 0 0 0 0 0 0 0 0.0034749772261 
0.0070287221828 0.010404601726 0.013418784504 0.015908826332 0.017726451913 0.018747857364 0.018888488606 0.018115234432 0.016452657281 
0.013983130988 0.010844588002 0.0072355880981 0.003450176277 0 0 0.0083172969527 0.018177374478 0.028848395816 
0.039445448247 0.048980050494 0.056474538504 0.061097840122 0.062288670319 0.059841143347 0.053937678921 0.045125261353 0.034243372918 
0.022325086442 0.010507164197 0 0 0.014293899637 0.032573415225 0.053491664978 0.075098466624 0.09509369226 
0.11116329026 0.12133101584 0.12426295861 0.11947371082 0.10740113181 0.089339165325 0.067242459924 0.043439726553 0.020311698899 
0 0 0.020804172772 0.048563020101 0.081249129532 0.1156591243 0.14792235125 0.17411377796 0.19087284423 
0.1959305283 0.18846247432 0.16921382803 0.14037719075 0.10524363375 0.067682406429 0.031532172649 0 0 
0.027052109338 0.064062869366 0.10834558549 0.15544881469 0.19992452781 0.23622387077 0.25958859357 0.26680462853 0.25670434316 
0.23034172118 0.19081381786 0.14275472084 0.091576960677 0.042572058139 0 0 0.032206785476 0.076933479895 
0.13094455754 0.1887345884 0.24351740148 0.28836376758 0.3173260598 0.32638546442 0.31408150014 0.28172996282 0.23319585942 
0.17425297244 0.11162166012 0.051821778359 0 0 0.035549168052 0.085336397296 0.14576490478 0.210628562 
0.27224885527 0.32277473581 0.35546369886 0.36575879217 0.35200335583 0.315687528 0.26118859917 0.19504049604 0.12483520318 
0.0579100408 0 0 0.036592040481 0.088030973711 0.15059847237 0.21784728827 0.28178991382 0.33425518469 
0.36822409958 0.37895223261 0.36471425564 0.32706039705 0.2705453772 0.20196639453 0.12921690436 0.059916068659 0 
0 0.035158818448 0.084570742804 0.14465412047 0.20921769178 0.27059680742 0.32095234524 0.35355084627 0.36384070636 
0.35016633124 0.31401437655 0.25975422824 0.19390805756 0.12405325681 0.057511035226 0 0 0.031411041848 
0.075371995117 0.12867793968 0.18585391927 0.24014241928 0.28463901078 0.31341499268 0.32246285287 0.3103245148 0.27830867097 
0.23026392602 0.17193952284 0.11002531631 0.051007702645 0 0 0.025820969848 0.061644945158 0.10483204452 
0.15097857891 0.19468199819 0.23043314659 0.25350435433 0.26070011126 0.25085715119 0.22501850657 0.18625513965 0.13916161937 
0.089101053723 0.041311105178 0 0 0.019093283724 0.045197487573 0.076349736847 0.10941489577 0.14058811203 
0.16600229194 0.18234203531 0.18736632698 0.18025827431 0.16174803342 0.13399067966 0.10021924691 0.064229174009 0.029778344435 
0 0 0.012047017157 0.028139490516 0.047017392524 0.066825406259 0.085354945112 0.10037305615 0.10996762008 
0.11284558526 0.10853401834 0.097451826194 0.080841954851 0.060577749027 0.038880917336 0.018010573064 0 0 
0.0054745835138 0.012528362917 0.020557682472 0.028810450293 0.036422584385 0.042527211005 0.046382645945 0.047486436661 0.045653227025 
0.041043137277 0.034136938861 0.02566493314 0.016508918233 0.0076153009952 0 0 0 0 
0 0 0 0 0 0 0 0 0 
0 0 0 0 
