# vtk DataFile Version 5.1
vtk output
ASCII
DATASET STRUCTURED_POINTS
DIMENSIONS 16 16 1
SPACING 1 1 1
ORIGIN 0 0 0
POINT_DATA 256
SCALARS scalars double
LOOKUP_TABLE default
0 0 0 0 0 0 0 0 0 
0 0 0 0 0 0 0 0 -0.00080846817238 
0.0013656566177 0.0059696810596 0.012052514011 0.018458449552 0.024022684645 0.027756023597 0.028998002927 0.027518894325 0.02355759824 
0.017792067199 0.011250446324 0.0051851033779 0.00095328070527 0 0 0.00056929011666 0.01184889362 0.031554345227 
0.056136360844 0.081373679384 0.10303765896 0.1175434434 0.12249701207 0.11706001303 0.10208082563 0.079975305162 0.054379051833 
0.029630480815 0.010175482168 0 0 0.0035660287741 0.029252241856 0.072123123593 0.12475106002 0.17837389026 
0.2242372159 0.25492613546 0.26548896135 0.25418637537 0.22275677198 0.17616091693 0.12184612984 0.068642964009 0.025464099387 
0 0 0.0074882553766 0.050501666458 0.12095000582 0.20682896909 0.29403487139 0.36849743998 0.41830688707 
0.43551102033 0.41731170192 0.36648520522 0.29096670711 0.20265968179 0.11564630266 0.044068666484 0 0 
0.011571830346 0.072052571657 0.17018454487 0.28938395638 0.41021051375 0.51328818679 0.58222498202 0.60607893873 0.58099612287 
0.51078288506 0.40633223205 0.28398354889 0.16305216535 0.062900640235 0 0 0.015073830846 0.090394323422 
0.21201321957 0.35946313296 0.50878204647 0.63610204969 0.72124062521 0.7507302908 0.71982529773 0.63319969286 0.50424238079 
0.3530412527 0.20333969196 0.078923770614 0 0 0.017372886653 0.10256455106 0.23982738268 0.40610028483 
0.57440385496 0.71787534776 0.81380803636 0.84705480561 0.81227711516 0.71472505608 0.56944678926 0.39902591082 0.23015796343 
0.089581585556 0 0 0.018057338438 0.10658896022 0.24921534038 0.42196953078 0.59682196737 0.74587016275 
0.84553277122 0.88008163606 0.84397341995 0.74265753069 0.59175658694 0.4147196788 0.23926833432 0.093169905343 0 
0 0.01698609873 0.10177780599 0.23862654503 0.40448787548 0.57241425208 0.71558223694 0.81132220064 0.84451331141 
0.80982688004 0.71250466259 0.56757061884 0.39757439862 0.22917662036 0.089088841962 0 0 0.014313424537 
0.088834967434 0.20960899768 0.35620376837 0.50472856899 0.63140372583 0.7161298035 0.74549798218 0.71478420237 0.62864326366 
0.50040906615 0.35009257405 0.20135855691 0.07793413908 0 0 0.010476349696 0.069766519213 0.16658718035 
0.28441637339 0.40394307095 0.5059504327 0.57419519899 0.59783969244 0.57306780727 0.50365018371 0.40037949259 0.27945459597 
0.16004725276 0.061415992673 0 0 0.0061527926294 0.047609656571 0.11621837823 0.20008262575 0.28532325412 
0.35814045572 0.40687315153 0.42374163421 0.40600910228 0.35639042969 0.28265010774 0.19645004259 0.11162136806 0.042124620904 
0 0 0.002211670028 0.026037344564 0.066432318625 0.1161764257 0.16689786064 0.21029160953 0.2393460917 
0.24938553977 0.2387672218 0.20912882532 0.16515136703 0.1138779828 0.06370181374 0.023197500692 0 0 
-0.00029778211458 0.0089264779561 0.025312281608 0.045750978043 0.066701326496 0.084668067433 0.09670566402 0.1008514795 0.09641700555 
0.084092303364 0.065849713039 0.044666782625 0.024125557847 0.007994285901 0 0 0 0 
0 0 0 0 0 0 0 0 0 
0 0 0 0 
