# vtk DataFile Version 5.1
vtk output
ASCII
DATASET STRUCTURED_POINTS
DIMENSIONS 16 16 1
SPACING 1 1 1
ORIGIN 0 0 0
POINT_DATA 256
SCALARS scalars double
LOOKUP_TABLE default
0 0 0 0 0 0 0 0 0 
0 0 0 0 0 0 0 0 -0.0072122727464 
-0.0061792588373 -0.0032666067628 0.0006859030593 0.0048768115273 0.0085798412705 0.011208975779 0.012383732716 0.011975397008 0.010122587268 
0.0072119085324 0.0038267473673 0.00067433230335 -0.0014919781657 0 0 -0.0063649121205 0.0072835961 0.029036492009 
0.055218776275 0.081661131025 0.10426576286 0.11958927231 0.12534394803 0.12073466303 0.1065763204 0.085172161437 0.059971106685 
0.035057120835 0.014549912486 0 0 -0.0037603152692 0.028679714541 0.078107210865 0.13677503014 0.19565336581 
0.24576324998 0.27951691244 0.2918575342 0.28102178296 0.24880689104 0.20030038172 0.14311304045 0.08623165561 0.038665455907 
0 0 -0.00019296948653 0.054396316179 0.13627734612 0.23296004263 0.32975326796 0.41198918334 0.46724746652 
0.48724138881 0.46907829234 0.41570206323 0.33544981015 0.24078987689 0.14643277944 0.06710144339 0 0 
0.003598120661 0.080346230539 0.19461561237 0.32919537397 0.46376288638 0.57799143225 0.6546530934 0.68224766968 0.65675910213 
0.58227286703 0.47036074283 0.33832667365 0.20658046732 0.09553829807 0 0 0.0069526289731 0.10251721602 
0.24424357039 0.41092561444 0.57747732046 0.71878596486 0.81355761129 0.84757426474 0.81586990903 0.72349602235 0.58476110688 
0.42106053068 0.25762715077 0.11969709794 0 0 0.0093417373971 0.11753962566 0.27765930154 0.46582540647 
0.65377045385 0.81318545158 0.92006106215 0.95836427978 0.92249476099 0.81814933094 0.66146457346 0.47656890992 0.29191726845 
0.13596650374 0 0 0.01042357528 0.12317535325 0.28986339811 0.48567108892 0.68120922742 0.84704179467 
0.95820186678 0.9980163164 0.96066108929 0.85206066741 0.68899644166 0.49656075298 0.30434481195 0.14194125354 0 
0 0.010083088458 0.11864669088 0.27911245759 0.46759159146 0.65580023197 0.81541225744 0.92240325398 0.96072989265 
0.92478818399 0.820278679 0.66334836345 0.47814080918 0.29312814952 0.13678374947 0 0 0.0084454908717 
0.10475108061 0.24718308308 0.4145075802 0.58160361672 0.72332140146 0.81833414575 0.85240128493 0.82054881648 0.72783636612 
0.58859516732 0.42425358281 0.26008162971 0.12135044584 0 0 0.0058593658435 0.083742476464 0.19910496052 
0.33469156944 0.47012124625 0.58500391366 0.66205495921 0.68973506725 0.66401430222 0.58899225979 0.47628009906 0.34323870053 
0.21034130545 0.098062247404 0 0 0.0028522710466 0.058997198076 0.14240322691 0.24051565678 0.33855228239 
0.42174401747 0.47757909317 0.49770746142 0.47921394174 0.42506524608 0.3436622176 0.24756513553 0.15158599306 0.070538063981 
0 0 6.8345647937e-05 0.034516380044 0.085965512525 0.14657710281 0.20718137498 0.25864024993 0.29322143714 
0.30576792879 0.29448067399 0.26119287667 0.21109285369 0.15193698111 0.092872236761 0.043047410962 0 0 
-0.0017959084985 0.014343099244 0.03870591566 0.067486079737 0.096296077404 0.12078741627 0.13728937108 0.14335703993 0.13813916405 
0.12250663071 0.098920553894 0.071059291549 0.043260931092 0.019866158372 0 0 0 0 
0 0 0 0 0 0 0 0 0 
0 0 0 0 
