# vtk DataFile Version 5.1
vtk output
ASCII
DATASET STRUCTURED_POINTS
DIMENSIONS 16 16 1
SPACING 1 1 1
ORIGIN 0 0 0
POINT_DATA 256
SCALARS scalars double
LOOKUP_TABLE default
0 0 0 0 0 0 0 0 0 
0 0 0 0 0 0 0 0 0.0014485813927 
0.0055737921851 0.011747606429 0.019030116872 0.026312627315 0.032486441559 0.036611652352 0.038060233744 0.036611652352 0.032486441559 
0.026312627315 0.019030116872 0.011747606429 0.0055737921851 0 0 0.0055737921851 0.021446609407 0.04520195913 
0.073223304703 0.10124465028 0.125 0.14087281722 0.14644660941 0.14087281722 0.125 0.10124465028 0.073223304703 
0.04520195913 0.021446609407 0 0 0.011747606429 0.04520195913 0.095269936169 0.15432914191 0.21338834765 
0.26345632469 0.29691067739 0.30865828382 0.29691067739 0.26345632469 0.21338834765 0.15432914191 0.095269936169 0.04520195913 
0 0 0.019030116872 0.073223304703 0.15432914191 0.25 0.34567085809 0.4267766953 0.48096988313 
0.5 0.48096988313 0.4267766953 0.34567085809 0.25 0.15432914191 0.073223304703 0 0 
0.026312627315 0.10124465028 0.21338834765 0.34567085809 0.47795336853 0.59009706591 0.66502908887 0.69134171618 0.66502908887 
0.59009706591 0.47795336853 0.34567085809 0.21338834765 0.10124465028 0 0 0.032486441559 0.125 
0.26345632469 0.4267766953 0.59009706591 0.72855339059 0.82106694903 0.85355339059 0.82106694903 0.72855339059 0.59009706591 
0.4267766953 0.26345632469 0.125 0 0 0.036611652352 0.14087281722 0.29691067739 0.48096988313 
0.66502908887 0.82106694903 0.9253281139 0.96193976626 0.9253281139 0.82106694903 0.66502908887 0.48096988313 0.29691067739 
0.14087281722 0 0 0.038060233744 0.14644660941 0.30865828382 0.5 0.69134171618 0.85355339059 
0.96193976626 1 0.96193976626 0.85355339059 0.69134171618 0.5 0.30865828382 0.14644660941 0 
0 0.036611652352 0.14087281722 0.29691067739 0.48096988313 0.66502908887 0.82106694903 0.9253281139 0.96193976626 
0.9253281139 0.82106694903 0.66502908887 0.48096988313 0.29691067739 0.14087281722 0 0 0.032486441559 
0.125 0.26345632469 0.4267766953 0.59009706591 0.72855339059 0.82106694903 0.85355339059 0.82106694903 0.72855339059 
0.59009706591 0.4267766953 0.26345632469 0.125 0 0 0.026312627315 0.10124465028 0.21338834765 
0.34567085809 0.47795336853 0.59009706591 0.66502908887 0.69134171618 0.66502908887 0.59009706591 0.47795336853 0.34567085809 
0.21338834765 0.10124465028 0 0 0.019030116872 0.073223304703 0.15432914191 0.25 0.34567085809 
0.4267766953 0.48096988313 0.5 0.48096988313 0.4267766953 0.34567085809 0.25 0.15432914191 0.073223304703 
0 0 0.011747606429 0.04520195913 0.095269936169 0.15432914191 0.21338834765 0.26345632469 0.29691067739 
0.30865828382 0.29691067739 0.26345632469 0.21338834765 0.15432914191 0.095269936169 0.04520195913 0 0 
0.0055737921851 0.021446609407 0.04520195913 0.073223304703 0.10124465028 0.125 0.14087281722 0.14644660941 0.14087281722 
0.125 0.10124465028 0.073223304703 0.04520195913 0.021446609407 0 0 0 0 
0 0 0 0 0 0 0 0 0 
0 0 0 0 
