# vtk DataFile Version 5.1
vtk output
ASCII
DATASET STRUCTURED_POINTS
DIMENSIONS 16 16 1
SPACING 1 1 1
ORIGIN 0 0 0
POINT_DATA 256
SCALARS scalars double
LOOKUP_TABLE default
0 0 0 0 0 0 0 0 0 
0 0 0 0 0 0 0 0 -2.4804041479e-08 
-2.7598897304e-08 -2.9668064017e-08 -3.1125137775e-08 -3.2115883391e-08 -3.2734317106e-08 -3.3032206996e-08 -3.3032206995e-08 -3.2734317106e-08 -3.2115883391e-08 
-3.1125137775e-08 -2.9668064017e-08 -2.7598897304e-08 -2.4804041479e-08 0 0 -2.7598897304e-08 -2.9018781803e-08 -3.0372359302e-08 
-3.1465385502e-08 -3.2267084538e-08 -3.2788668477e-08 -3.3045158766e-08 -3.3045158766e-08 -3.2788668477e-08 -3.2267084538e-08 -3.1465385502e-08 -3.0372359302e-08 
-2.9018781803e-08 -2.7598897304e-08 0 0 -2.9668064018e-08 -3.0372359302e-08 -3.1198406122e-08 -3.1953165568e-08 -3.2550942245e-08 
-3.2958271354e-08 -3.3163586537e-08 -3.3163586537e-08 -3.2958271354e-08 -3.2550942244e-08 -3.1953165568e-08 -3.1198406121e-08 -3.0372359302e-08 -2.9668064017e-08 
0 0 -3.1125137776e-08 -3.1465385503e-08 -3.1953165569e-08 -3.2451904457e-08 -3.2876491767e-08 -3.3179270939e-08 -3.3335773995e-08 
-3.3335773995e-08 -3.3179270938e-08 -3.2876491767e-08 -3.2451904456e-08 -3.1953165569e-08 -3.1465385503e-08 -3.1125137776e-08 0 0 
-3.2115883392e-08 -3.226708454e-08 -3.2550942246e-08 -3.2876491768e-08 -3.3173605938e-08 -3.3394919466e-08 -3.3512122129e-08 -3.3512122129e-08 -3.3394919466e-08 
-3.3173605938e-08 -3.2876491767e-08 -3.2550942245e-08 -3.2267084539e-08 -3.2115883392e-08 0 0 -3.2734317108e-08 -3.2788668479e-08 
-3.2958271356e-08 -3.3179270941e-08 -3.3394919467e-08 -3.3562066186e-08 -3.3652524644e-08 -3.3652524644e-08 -3.3562066186e-08 -3.3394919466e-08 -3.317927094e-08 
-3.2958271355e-08 -3.2788668479e-08 -3.2734317107e-08 0 0 -3.3032206998e-08 -3.3045158769e-08 -3.316358654e-08 -3.3335773998e-08 
-3.3512122131e-08 -3.3652524645e-08 -3.3729595705e-08 -3.3729595705e-08 -3.3652524644e-08 -3.351212213e-08 -3.3335773997e-08 -3.3163586539e-08 -3.3045158768e-08 
-3.3032206997e-08 0 0 -3.3032206998e-08 -3.3045158769e-08 -3.316358654e-08 -3.3335773998e-08 -3.3512122131e-08 -3.3652524645e-08 
-3.3729595706e-08 -3.3729595705e-08 -3.3652524644e-08 -3.351212213e-08 -3.3335773997e-08 -3.3163586539e-08 -3.3045158768e-08 -3.3032206997e-08 0 
0 -3.2734317108e-08 -3.278866848e-08 -3.2958271357e-08 -3.3179270941e-08 -3.3394919468e-08 -3.3562066187e-08 -3.3652524644e-08 -3.3652524644e-08 
-3.3562066186e-08 -3.3394919467e-08 -3.317927094e-08 -3.2958271356e-08 -3.2788668479e-08 -3.2734317107e-08 0 0 -3.2115883393e-08 
-3.2267084541e-08 -3.2550942247e-08 -3.2876491769e-08 -3.3173605939e-08 -3.3394919467e-08 -3.3512122129e-08 -3.3512122129e-08 -3.3394919466e-08 -3.3173605938e-08 
-3.2876491768e-08 -3.2550942246e-08 -3.226708454e-08 -3.2115883392e-08 0 0 -3.1125137776e-08 -3.1465385504e-08 -3.195316557e-08 
-3.2451904457e-08 -3.2876491768e-08 -3.3179270939e-08 -3.3335773996e-08 -3.3335773996e-08 -3.3179270939e-08 -3.2876491767e-08 -3.2451904457e-08 -3.1953165569e-08 
-3.1465385503e-08 -3.1125137776e-08 0 0 -2.9668064018e-08 -3.0372359303e-08 -3.1198406123e-08 -3.1953165569e-08 -3.2550942245e-08 
-3.2958271354e-08 -3.3163586537e-08 -3.3163586537e-08 -3.2958271354e-08 -3.2550942244e-08 -3.1953165568e-08 -3.1198406122e-08 -3.0372359302e-08 -2.9668064018e-08 
0 0 -2.7598897304e-08 -2.9018781803e-08 -3.0372359302e-08 -3.1465385502e-08 -3.2267084539e-08 -3.2788668477e-08 -3.3045158766e-08 
-3.3045158766e-08 -3.2788668477e-08 -3.2267084538e-08 -3.1465385502e-08 -3.0372359302e-08 -2.9018781803e-08 -2.7598897304e-08 0 0 
-2.4804041479e-08 -2.7598897304e-08 -2.9668064017e-08 -3.1125137775e-08 -3.2115883391e-08 -3.2734317106e-08 -3.3032206996e-08 -3.3032206996e-08 -3.2734317106e-08 
-3.2115883391e-08 -3.1125137775e-08 -2.9668064017e-08 -2.7598897304e-08 -2.4804041479e-08 0 0 0 0 
0 0 0 0 0 0 0 0 0 
0 0 0 0 
