# vtk DataFile Version 5.1
vtk output
ASCII
DATASET STRUCTURED_POINTS
DIMENSIONS 16 16 1
SPACING 1 1 1
ORIGIN 0 0 0
POINT_DATA 256
SCALARS scalars double
LOOKUP_TABLE default
0 0 0 0 0 0 0 0 0 
0 0 0 0 0 0 0 0 0.0009341462233 
0.0045795635769 0.010302419662 0.017157549886 0.02403524874 0.029832213415 0.033618902948 0.034777393425 0.033091571708 0.028781175272 
0.022478981738 0.015157914476 0.0080282047488 0.0024530049183 0 0 0.0045795635769 0.019589200327 0.042583454469 
0.069910958604 0.097277198569 0.12040405007 0.13568030669 0.14070130583 0.13462201992 0.11828349607 0.094102805013 0.065742900577 
0.03761279173 0.014291309577 0 0 0.010302419662 0.042583454469 0.091681278824 0.14988691291 0.20813123617 
0.25738044459 0.29001312861 0.30095745668 0.28842782595 0.25418189074 0.20327849751 0.14335935218 0.083538786537 0.033068648855 
0 0 0.017157549886 0.069910958604 0.14988691291 0.24457979824 0.33927967244 0.41934777608 0.47245831754 
0.49042741679 0.47037334827 0.41511131962 0.33276856586 0.23563252262 0.13832988712 0.055594500896 0 0 
0.02403524874 0.097277198569 0.20813123617 0.33927967244 0.47035798997 0.58113227865 0.65462112142 0.67959337657 0.65209959049 
0.57597627457 0.46234617404 0.32808432722 0.19330881733 0.078240661689 0 0 0.029832213415 0.12040405007 
0.25738044459 0.41934777608 0.58113227865 0.71776809233 0.80838454851 0.83924450293 0.80552840948 0.71189827756 0.57193477312 
0.40634140462 0.23987780168 0.097431792127 0 0 0.033618902948 0.13568030669 0.29001312861 0.47245831754 
0.65462112142 0.80838454851 0.91032086042 0.94507279273 0.90726419957 0.80208143644 0.6446915597 0.45831402182 0.27079939681 
0.1101621663 0 0 0.034777393425 0.14070130583 0.30095745668 0.49042741679 0.67959337657 0.83924450293 
0.94507279273 0.98116925823 0.94196955259 0.83283667033 0.66947750016 0.4759776175 0.28126098172 0.11443285533 0 
0 0.033091571708 0.13462201992 0.28842782595 0.47037334827 0.65209959049 0.80552840948 0.90726419957 0.94196955259 
0.9042750046 0.79936079912 0.64237476497 0.45650532016 0.26956630664 0.10953933256 0 0 0.028781175272 
0.11828349607 0.25418189074 0.41511131962 0.57597627457 0.71189827756 0.80208143644 0.83283667033 0.79936079912 0.7062998939 
0.56718728555 0.40265377829 0.23737659638 0.096173534808 0 0 0.022478981738 0.094102805013 0.20327849751 
0.33276856586 0.46234617404 0.57193477312 0.6446915597 0.66947750016 0.64237476497 0.56718728555 0.45494532243 0.32238740294 
0.18948243889 0.07633165436 0 0 0.015157914476 0.065742900577 0.14335935218 0.23563252262 0.32808432722 
0.40634140462 0.45831402182 0.4759776175 0.45650532016 0.40265377829 0.32238740294 0.22775661928 0.13313109104 0.053043094774 
0 0 0.0080282047488 0.03761279173 0.083538786537 0.13832988712 0.19330881733 0.23987780168 0.27079939681 
0.28126098172 0.26956630664 0.23737659638 0.18948243889 0.13313109104 0.076997086929 0.029970823217 0 0 
0.0024530049183 0.014291309577 0.033068648855 0.055594500896 0.078240661689 0.097431792127 0.1101621663 0.11443285533 0.10953933256 
0.096173534808 0.07633165436 0.053043094774 0.029970823217 0.010993114099 0 0 0 0 
0 0 0 0 0 0 0 0 0 
0 0 0 0 
