# vtk DataFile Version 5.1
vtk output
ASCII
DATASET STRUCTURED_POINTS
DIMENSIONS 16 16 1
SPACING 1 1 1
ORIGIN 0 0 0
POINT_DATA 256
SCALARS scalars double
LOOKUP_TABLE default
0 0 0 0 0 0 0 0 0 
0 0 0 0 0 0 0 0 0.0020046979252 
0.0037380884184 0.0051166376934 0.0061391752341 0.0068379942761 0.0072542224466 0.0074239975557 0.0073704270001 0.007099509766 0.0065995582049 
0.0058444186814 0.0048016564495 0.0034486996632 0.0018047260676 0 0 0.0045344727559 0.0087910783748 0.012606415944 
0.015866093565 0.018469499182 0.020322884118 0.021345635998 0.021480518542 0.020702348748 0.019022289839 0.016487378691 0.013177530298 
0.0092055421656 0.0047302828065 0 0 0.0075203613256 0.014908611447 0.021941203285 0.028324321043 0.033711749964 
0.037748978253 0.040126999742 0.040631801438 0.039178932715 0.035826672962 0.030766000972 0.024290580892 0.016755004959 0.0085341660088 
0 0 0.010703609297 0.021501085121 0.032125661276 0.042073879566 0.050695290147 0.057306284379 0.061307655364 
0.062285812354 0.060080978875 0.054811472016 0.046850458561 0.03675942839 0.02518992674 0.012770689172 0 0 
0.013724946717 0.027791241244 0.041901932956 0.055346955625 0.067167215991 0.076341869105 0.081973051916 0.083441375204 0.08050922106 
0.073356426148 0.062542895196 0.048903452083 0.033390037672 0.016883478486 0 0 0.016203599513 0.032967284272 
0.049974593374 0.066342586121 0.080849631889 0.09218628601 0.099198365908 0.10108956324 0.097555149663 0.088827458626 0.075626107058 
0.059019224892 0.040214005889 0.020303502807 0 0 0.017807829866 0.036325996411 0.055228148788 0.073517597544 
0.089797768619 0.10256598697 0.11049602906 0.11267263727 0.10874579787 0.09898282254 0.08421013957 0.06565174021 0.044684822677 
0.022542850678 0 0 0.018311881807 0.037390261054 0.056908249422 0.075831403838 0.092703112974 0.10595357109 
0.11419639133 0.11647451061 0.11242181123 0.10231754369 0.08702508581 0.067822249347 0.046144514761 0.023272644424 0 
0 0.017633080794 0.035986202306 0.054741478763 0.072908682116 0.089095538128 0.10180180236 0.10970230456 0.11188193174 
0.1079902024 0.098293400257 0.083616175969 0.065179636792 0.04435661409 0.02237452615 0 0 0.015844396982 
0.032269526699 0.048976621538 0.065095821193 0.079413802109 0.09062548982 0.097578341478 0.099476043622 0.096012880544 0.087419318231 
0.07441177287 0.058052981344 0.039541599031 0.019958412921 0 0 0.013160642522 0.026697179042 0.04034123625 
0.053402607424 0.064933676936 0.073918704539 0.079460970395 0.080940270389 0.078117378222 0.071169875101 0.060653897975 0.047397319322 
0.032339951595 0.016343849589 0 0 0.0098996560936 0.019947594438 0.029919254994 0.039337482563 0.047564466412 
0.053920026822 0.057803602441 0.058798815364 0.056743513852 0.051754235384 0.044201480774 0.034640221561 0.023707750361 0.012007348373 
0 0 0.0064223416253 0.01279907018 0.018966161513 0.024660308361 0.02954464283 0.033261980139 0.035496112541 
0.036026424139 0.03476513868 0.03177071306 0.027235526591 0.021451038991 0.014758932802 0.0075026063181 0 0 
0.0030558856282 0.0059794653683 0.0086862086837 0.011088587674 0.013082903105 0.014559140403 0.015418511606 0.015590683503 0.015045971333 
0.013799952822 0.011909959405 0.0094651155249 0.0065745313782 0.0033634542006 0 0 0 0 
0 0 0 0 0 0 0 0 0 
0 0 0 0 
