# vtk DataFile Version 5.1
vtk output
ASCII
DATASET STRUCTURED_POINTS
DIMENSIONS 16 16 1
SPACING 1 1 1
ORIGIN 0 0 0
POINT_DATA 256
SCALARS scalars double
LOOKUP_TABLE default
0 0 0 0 0 0 0 0 0 
0 0 0 0 0 0 0 0 0.0027729111994 
0.0074680727563 0.013489219137 0.020070329639 0.026345357888 0.031461769877 0.034702206177 0.035588437096 0.033950911807 0.029956072494 
0.024090873217 0.017111383865 0.0099752489376 0.0038051582283 0 0 0.0082642148359 0.024688976773 0.047132667953 
0.072526640201 0.097294936938 0.11788050199 0.13127776114 0.13548055393 0.12977828093 0.11486349156 0.092741642049 0.066459313521 
0.039698650265 0.016324182385 0 0 0.015891973744 0.049433609738 0.096225934871 0.14973853554 0.20228712018 
0.2462052399 0.27501151466 0.28438133703 0.27278184651 0.24169559636 0.19541270134 0.14041545529 0.08443594582 0.035335550281 
0 0 0.024632383689 0.078157589867 0.15353597909 0.24014800264 0.32544277518 0.39688934695 0.44390490491 
0.45943973864 0.44099464018 0.39097084712 0.31633027371 0.22758697098 0.13723104392 0.057812061529 0 0 
0.033227801954 0.10660807894 0.21046596362 0.33008441001 0.44803244016 0.54691524154 0.61207622919 0.63378047764 0.60857939962 
0.53976799852 0.43693167914 0.31457828798 0.18994198666 0.080261209698 0 0 0.04040409627 0.13051054438 
0.25840914094 0.40589940864 0.55140224658 0.67340696981 0.7538427724 0.78075074995 0.74990053997 0.66531617401 0.53875004012 
0.38805257152 0.23446857944 0.099219999088 0 0 0.045076708266 0.14623843039 0.29008079281 0.45607146156 
0.61985573199 0.75718165614 0.84772712225 0.87808511096 0.84351963627 0.74852224002 0.60625328041 0.43676554915 0.26397429437 
0.11176698783 0 0 0.046519322949 0.151367711 0.30062038083 0.47293237884 0.64298257198 0.78556746659 
0.87958820738 0.91114193077 0.87532015844 0.77677279879 0.62914132415 0.45323766662 0.27390361188 0.1159544819 0 
0 0.044474134289 0.14504018485 0.28830850782 0.45377226522 0.61710990873 0.75410313327 0.84445671043 0.87477984779 
0.84034161531 0.74562766758 0.60378108878 0.4348267718 0.26264595489 0.1110934245 0 0 0.039192045407 
0.12809236338 0.25481677306 0.40121734926 0.54578652248 0.66708835885 0.74711396002 0.77394336179 0.74335865657 0.65936923872 
0.53368606866 0.38409548594 0.23176718331 0.097854071032 0 0 0.031400353025 0.10293793755 0.20496806892 
0.32285865254 0.43930154991 0.53703412967 0.60151294982 0.62307692035 0.59830166561 0.53045368426 0.42903980621 0.30845053252 
0.18578722048 0.078172437265 0 0 0.022204780479 0.073220482937 0.14603189701 0.23015188798 0.31322989269 
0.38295309908 0.42892839016 0.4442324015 0.42640816904 0.37780783075 0.30525881263 0.21907677918 0.13152947276 0.054977651013 
0 0 0.012946118123 0.043286975224 0.086640328593 0.13669476714 0.18609262654 0.2275178443 0.25479286366 
0.2637966067 0.25306545148 0.22400409266 0.18068674319 0.12927399407 0.077128813391 0.031788245709 0 0 
0.0050550328403 0.017570997942 0.035484613037 0.056127181252 0.076459152699 0.093476425872 0.10464591667 0.10827738368 0.10376979879 
0.091699351387 0.073740702987 0.052436323446 0.0308603972 0.012276507839 0 0 0 0 
0 0 0 0 0 0 0 0 0 
0 0 0 0 
