# vtk DataFile Version 5.1
vtk output
ASCII
DATASET STRUCTURED_POINTS
DIMENSIONS 16 16 1
SPACING 1 1 1
ORIGIN 0 0 0
POINT_DATA 256
SCALARS scalars double
LOOKUP_TABLE default
0 0 0 0 0 0 0 0 0 
0 0 0 0 0 0 0 0 0.0038507224941 
0.0086180917407 0.013848772066 0.019064502083 0.023755363751 0.027425368837 0.029655647325 0.030164229811 0.028848686246 0.025803967471 
0.021314314042 0.015825887786 0.009917736876 0.0043095549123 0 0 0.009906670118 0.024580034349 0.042531717356 
0.061744383798 0.079893383127 0.09466432224 0.10409215647 0.1068570127 0.10248571319 0.091426726885 0.074989198849 0.055162009798 
0.034354724995 0.015127662182 0 0 0.017738084406 0.046256755479 0.082614903121 0.12247600689 0.16072438734 
0.19222943176 0.21262565867 0.21898063043 0.21024444201 0.18741107925 0.15336866929 0.11246630182 0.069872715028 0.030839493435 
0 0 0.026449925731 0.07086201591 0.12862672788 0.19267553267 0.25457749119 0.30584570164 0.3392497911 
0.34993121482 0.33614972024 0.29954682168 0.24488686083 0.17931699254 0.11126193498 0.04912564244 0 0 
0.03489871353 0.094976329624 0.17397644805 0.26210410001 0.34760674551 0.41862880805 0.46506190067 0.48011135853 0.46134171385 
0.41104234193 0.3358573622 0.24573506784 0.15235437812 0.067262848163 0 0 0.041905806306 0.11512347528 
0.21201101601 0.32046688506 0.42592262393 0.51366397256 0.57113889278 0.58990808031 0.56694468248 0.50508655817 0.41257121937 
0.30172074972 0.18697004281 0.082526739216 0 0 0.046457094831 0.12833100203 0.23706000817 0.35900611663 
0.47772277276 0.57658794532 0.64141822537 0.66267599032 0.63693898538 0.56741036873 0.46339008755 0.3387829852 0.20986105672 
0.09260435226 0 0 0.047867936085 0.13259964536 0.24531668157 0.37184871159 0.49509744374 0.59777841718 
0.66514156392 0.68726755906 0.66059639084 0.58845745043 0.48051881548 0.35123395788 0.21751163015 0.095945862468 0 
0 0.045892421118 0.12721563199 0.23542536677 0.35690563573 0.4752349304 0.57381610813 0.63848673355 0.65972285468 
0.63410624797 0.56483361905 0.46118882302 0.33705343201 0.20867264915 0.092000171533 0 0 0.040762481176 
0.11286131022 0.20868830136 0.31618744523 0.42084357256 0.50799595799 0.56513789835 0.58385976694 0.5611436182 0.49981356137 
0.40807246411 0.29819220904 0.18455014647 0.081298423553 0 0 0.033152251113 0.09150907918 0.16886183576 
0.25548858761 0.33972583679 0.40980863274 0.4557057427 0.47067329939 0.45229150431 0.40282692396 0.32886514315 0.24026910992 
0.14862005666 0.0653736619 0 0 0.024074650527 0.066116253907 0.1215737562 0.18348844388 0.2435685954 
0.29347008169 0.3260843881 0.33663365914 0.32340342347 0.28800057521 0.23509811577 0.17170824205 0.10609968967 0.046531533402 
0 0 0.014729206299 0.040169204794 0.073450479473 0.1104050316 0.14613242164 0.17572142605 0.19499338028 
0.20114016661 0.19315326664 0.17197655315 0.14036090507 0.10244824813 0.063160914778 0.027514487146 0 0 
0.0063339808558 0.017148895363 0.031085520416 0.046403960778 0.061113397102 0.073232163457 0.081076915422 0.083516166862 0.08014229837 
0.071333808567 0.058199466815 0.042418109982 0.026012829281 0.011133543587 0 0 0 0 
0 0 0 0 0 0 0 0 0 
0 0 0 0 
