# vtk DataFile Version 5.1
vtk output
ASCII
DATASET STRUCTURED_POINTS
DIMENSIONS 16 16 1
SPACING 1 1 1
ORIGIN 0 0 0
POINT_DATA 256
SCALARS scalars double
LOOKUP_TABLE default
0 0 0 0 0 0 0 0 0 
0 0 0 0 0 0 0 0 0.0012138670076 
0.0051390057572 0.011139062317 0.018261309465 0.025381420575 0.031374343732 0.035285411172 0.036475919155 0.034721597957 0.030250164839 
0.023714721821 0.016112536689 0.0086747346488 0.0027786315444 0 0 0.0051390057572 0.0207106063 0.04426682396 
0.072143182703 0.10001599525 0.12355988866 0.13910567896 0.14419886894 0.13797460531 0.12129368571 0.096622152992 0.067679119697 
0.038918662947 0.014947287012 0 0 0.011139062317 0.04426682396 0.09422447124 0.15328979028 0.21235183862 
0.26229667872 0.29539338398 0.30646969484 0.29369910553 0.25888096176 0.20717343429 0.1463243143 0.085523537159 0.034061061021 
0 0 0.018261309465 0.072143182703 0.15328979028 0.24919331717 0.345096844 0.4262388742 0.48009786131 
0.4982952249 0.47786753815 0.42171489207 0.33815826187 0.23967481469 0.14100545388 0.056923417198 0 0 
0.025381420575 0.10001599525 0.21235183862 0.345096844 0.47784969707 0.59020292432 0.66484550304 0.69019266296 0.66214247095 
0.58469161808 0.46931625751 0.33321122857 0.19665369512 0.079888310922 0 0 0.031374343732 0.12355988866 
0.26229667872 0.4262388742 0.59020292432 0.72899797556 0.82125526736 0.85267336426 0.81818476843 0.72271320436 0.58040466988 
0.41244649804 0.24380174086 0.099348448736 0 0 0.035285411172 0.13910567896 0.29539338398 0.48009786131 
0.66484550304 0.82125526736 0.92525247138 0.96072405111 0.92195827895 0.81449624215 0.65426307219 0.46510716443 0.27511559209 
0.11225685236 0 0 0.036475919155 0.14419886894 0.30646969484 0.4982952249 0.69019266296 0.85267336426 
0.96072405111 0.99760357054 0.95737680551 0.84579865794 0.67941091609 0.48298503624 0.28569298866 0.11657817235 0 
0 0.034721597957 0.13797460531 0.29369910553 0.47786753815 0.66214247095 0.81818476843 0.92195827895 0.95737680551 
0.9187381953 0.81157396081 0.65178280932 0.46317593346 0.27380095794 0.11159323773 0 0 0.030250164839 
0.12129368571 0.25888096176 0.42171489207 0.58469161808 0.72271320436 0.81449624215 0.84579865794 0.81157396081 0.71672442548 
0.57533713071 0.40851647119 0.24113804984 0.098008624695 0 0 0.023714721821 0.096622152992 0.20717343429 
0.33815826187 0.46931625751 0.58040466988 0.65426307219 0.67941091609 0.65178280932 0.57533713071 0.46144516943 0.32715358233 
0.19258341611 0.077856321064 0 0 0.016112536689 0.067679119697 0.1463243143 0.23967481469 0.33321122857 
0.41244649804 0.46510716443 0.48298503624 0.46317593346 0.40851647119 0.32715358233 0.23131562368 0.13547766495 0.054205561906 
0 0 0.0086747346488 0.038918662947 0.085523537159 0.14100545388 0.19665369512 0.24380174086 0.27511559209 
0.28569298866 0.27380095794 0.24113804984 0.19258341611 0.13547766495 0.078559706754 0.030749420318 0 0 
0.0027786315444 0.014947287012 0.034061061021 0.056923417198 0.079888310922 0.099348448736 0.11225685236 0.11657817235 0.11159323773 
0.098008624695 0.077856321064 0.054205561906 0.030749420318 0.011382412571 0 0 0 0 
0 0 0 0 0 0 0 0 0 
0 0 0 0 
