# vtk DataFile Version 5.1
vtk output
ASCII
DATASET STRUCTURED_POINTS
DIMENSIONS 16 16 1
SPACING 1 1 1
ORIGIN 0 0 0
POINT_DATA 256
SCALARS scalars double
LOOKUP_TABLE default
0 0 0 0 0 0 0 0 0 
0 0 0 0 0 0 0 0 0.0034756756529 
0.0070301169341 0.010406682712 0.01342152077 0.015912149447 0.017730240895 0.018751933783 0.01889262907 0.018119199864 0.016456228448 
0.013986135633 0.010846910329 0.0072371617543 0.0034509692371 0 0 0.0083186953113 0.018180173705 0.028852588334 
0.03945098877 0.048986817238 0.05648229441 0.061106215848 0.062297189819 0.059849292948 0.053944993041 0.045131385997 0.034248083517 
0.022328265412 0.010508761782 0 0 0.014295995051 0.032577626457 0.053498014046 0.07510693224 0.095104137443 
0.11117537845 0.12134416147 0.12427636494 0.11948650516 0.10741253957 0.089348632917 0.067249675837 0.043444560496 0.020314116936 
0 0 0.020806944417 0.048568620882 0.081257653235 0.11567063957 0.14793677949 0.17413072436 0.19089147187 
0.195949601 0.1884806084 0.16922983104 0.14039028791 0.10525347729 0.067688927884 0.031535412798 0 0 
0.027055499226 0.064069763735 0.10835619816 0.15546338831 0.19994314685 0.23624615332 0.25961342089 0.26683017558 0.25672851665 
0.23036277397 0.19083074069 0.14276721252 0.091585120674 0.042576078431 0 0 0.032210678364 0.07694144745 
0.13095696271 0.18875190778 0.24353996921 0.28839128866 0.31735713808 0.32641759973 0.31411176392 0.28175597499 0.23321639128 
0.17426785055 0.11163123922 0.051826457651 0 0 0.035553381288 0.085345061412 0.14577851097 0.2106477974 
0.27227429299 0.32280619061 0.35549956744 0.36579601144 0.35203828871 0.31571726735 0.26121175834 0.19505704566 0.12484574154 
0.057915155309 0 0 0.036596335344 0.088039822482 0.15061241608 0.21786709776 0.28181626079 0.33428793661 
0.36826158504 0.37899118193 0.36475076755 0.32709137061 0.27056937512 0.20198345213 0.12922771967 0.0599213042 0 
0 0.035162934736 0.084579211742 0.14466742992 0.2092365239 0.2706217332 0.32098318956 0.35358603688 0.36387723139 
0.35020061166 0.31404355199 0.25977693681 0.19392427517 0.12406357766 0.057516042075 0 0 0.031414742153 
0.075379576372 0.12868976168 0.18587045459 0.24016400461 0.2846653748 0.31344479697 0.32249368711 0.31035355114 0.27833361211 
0.23028359102 0.17195375399 0.11003446743 0.051012168922 0 0 0.025824072704 0.061651266328 0.10484179939 
0.15099201469 0.19469921528 0.23045380465 0.25352741348 0.26072385904 0.2508796181 0.22503805087 0.18627082062 0.13917316882 
0.089108582707 0.041314809222 0 0 0.01909567307 0.045202327626 0.076357130215 0.10942492862 0.14060074008 
0.16601718251 0.18235844856 0.18738315339 0.18027426663 0.16176212015 0.13400217467 0.10022785709 0.064234860711 0.029781163786 
0 0 0.012048631178 0.028142745212 0.04702232494 0.066832024506 0.085363164191 0.10038262245 0.1099780651 
0.11285625614 0.10854419514 0.097460874115 0.080849431111 0.06058341917 0.038884698984 0.018012459007 0 0 
0.0054753951806 0.012529994963 0.020560143917 0.028813731136 0.03642662737 0.042531881891 0.046387718472 0.047491608595 0.045658168912 
0.041047553936 0.034140614137 0.025667740366 0.016510801142 0.007616243359 0 0 0 0 
0 0 0 0 0 0 0 0 0 
0 0 0 0 
