# vtk DataFile Version 5.1
vtk output
ASCII
DATASET STRUCTURED_POINTS
DIMENSIONS 16 16 1
SPACING 1 1 1
ORIGIN 0 0 0
POINT_DATA 256
SCALARS scalars double
LOOKUP_TABLE default
0 0 0 0 0 0 0 0 0 
0 0 0 0 0 0 0 0 -2.4801792851e-08 
-2.7596395306e-08 -2.9665374438e-08 -3.1122316104e-08 -3.2112971903e-08 -3.2731349553e-08 -3.3029212438e-08 -3.3029212438e-08 -3.2731349553e-08 -3.2112971903e-08 
-3.1122316104e-08 -2.9665374438e-08 -2.7596395306e-08 -2.4801792851e-08 0 0 -2.7596395307e-08 -2.9016151085e-08 -3.0369605874e-08 
-3.1462532985e-08 -3.2264159343e-08 -3.2785695997e-08 -3.3042163034e-08 -3.3042163034e-08 -3.2785695997e-08 -3.2264159343e-08 -3.1462532985e-08 -3.0369605874e-08 
-2.9016151085e-08 -2.7596395306e-08 0 0 -2.9665374438e-08 -3.0369605875e-08 -3.1195577809e-08 -3.1950268832e-08 -3.2547991316e-08 
-3.2955283499e-08 -3.3160580069e-08 -3.3160580069e-08 -3.2955283498e-08 -3.2547991316e-08 -3.1950268831e-08 -3.1195577808e-08 -3.0369605874e-08 -2.9665374438e-08 
0 0 -3.1122316105e-08 -3.1462532987e-08 -3.1950268833e-08 -3.2448962507e-08 -3.2873511326e-08 -3.3176263049e-08 -3.3332751917e-08 
-3.3332751917e-08 -3.3176263048e-08 -3.2873511325e-08 -3.2448962506e-08 -3.1950268832e-08 -3.1462532986e-08 -3.1122316104e-08 0 0 
-3.2112971904e-08 -3.2264159345e-08 -3.2547991318e-08 -3.2873511327e-08 -3.3170598562e-08 -3.3391892027e-08 -3.3509084064e-08 -3.3509084064e-08 -3.3391892026e-08 
-3.3170598561e-08 -3.2873511326e-08 -3.2547991317e-08 -3.2264159344e-08 -3.2112971904e-08 0 0 -3.2731349555e-08 -3.2785696e-08 
-3.2955283501e-08 -3.3176263051e-08 -3.3391892027e-08 -3.3559023594e-08 -3.3649473851e-08 -3.3649473851e-08 -3.3559023593e-08 -3.3391892027e-08 -3.317626305e-08 
-3.29552835e-08 -3.2785695999e-08 -3.2731349555e-08 0 0 -3.302921244e-08 -3.3042163037e-08 -3.3160580072e-08 -3.333275192e-08 
-3.3509084066e-08 -3.3649473852e-08 -3.3726537925e-08 -3.3726537925e-08 -3.3649473851e-08 -3.3509084065e-08 -3.3332751919e-08 -3.3160580071e-08 -3.3042163036e-08 
-3.3029212439e-08 0 0 -3.302921244e-08 -3.3042163037e-08 -3.3160580072e-08 -3.333275192e-08 -3.3509084066e-08 -3.3649473852e-08 
-3.3726537925e-08 -3.3726537925e-08 -3.3649473851e-08 -3.3509084065e-08 -3.3332751919e-08 -3.3160580071e-08 -3.3042163036e-08 -3.3029212439e-08 0 
0 -3.2731349555e-08 -3.2785696e-08 -3.2955283502e-08 -3.3176263051e-08 -3.3391892028e-08 -3.3559023594e-08 -3.3649473851e-08 -3.3649473851e-08 
-3.3559023593e-08 -3.3391892027e-08 -3.317626305e-08 -3.29552835e-08 -3.2785695999e-08 -3.2731349555e-08 0 0 -3.2112971905e-08 
-3.2264159345e-08 -3.2547991318e-08 -3.2873511327e-08 -3.3170598562e-08 -3.3391892027e-08 -3.3509084064e-08 -3.3509084064e-08 -3.3391892026e-08 -3.3170598561e-08 
-3.2873511326e-08 -3.2547991317e-08 -3.2264159345e-08 -3.2112971904e-08 0 0 -3.1122316105e-08 -3.1462532987e-08 -3.1950268833e-08 
-3.2448962507e-08 -3.2873511327e-08 -3.3176263049e-08 -3.3332751918e-08 -3.3332751918e-08 -3.3176263049e-08 -3.2873511326e-08 -3.2448962506e-08 -3.1950268832e-08 
-3.1462532986e-08 -3.1122316105e-08 0 0 -2.9665374439e-08 -3.0369605875e-08 -3.1195577809e-08 -3.1950268832e-08 -3.2547991317e-08 
-3.2955283499e-08 -3.3160580069e-08 -3.3160580069e-08 -3.2955283499e-08 -3.2547991316e-08 -3.1950268832e-08 -3.1195577808e-08 -3.0369605875e-08 -2.9665374438e-08 
0 0 -2.7596395307e-08 -2.9016151085e-08 -3.0369605875e-08 -3.1462532986e-08 -3.2264159343e-08 -3.2785695997e-08 -3.3042163034e-08 
-3.3042163034e-08 -3.2785695997e-08 -3.2264159343e-08 -3.1462532985e-08 -3.0369605874e-08 -2.9016151085e-08 -2.7596395307e-08 0 0 
-2.4801792851e-08 -2.7596395307e-08 -2.9665374438e-08 -3.1122316104e-08 -3.2112971903e-08 -3.2731349553e-08 -3.3029212438e-08 -3.3029212438e-08 -3.2731349553e-08 
-3.2112971903e-08 -3.1122316104e-08 -2.9665374438e-08 -2.7596395306e-08 -2.4801792851e-08 0 0 0 0 
0 0 0 0 0 0 0 0 0 
0 0 0 0 
