# vtk DataFile Version 5.1
vtk output
ASCII
DATASET STRUCTURED_POINTS
DIMENSIONS 16 16 1
SPACING 1 1 1
ORIGIN 0 0 0
POINT_DATA 256
SCALARS scalars double
LOOKUP_TABLE default
0 0 0 0 0 0 0 0 0 
0 0 0 0 0 0 0 0 0.0029176473631 
0.0045378100303 0.0062510317523 0.0079574915528 0.0095157651411 0.010771598071 0.01158712615 0.011865675919 0.011568225705 0.010718985145 
0.0093992542035 0.0077305666102 0.0058499027965 0.0038812973225 0 0 0.0043712324928 0.0068567514496 0.0095255433882 
0.012211187866 0.01467981804 0.016677700487 0.017978957428 0.018425874356 0.017955599017 0.016609172522 0.014521520997 0.011893944902 
0.0089534103486 0.0059052658355 0 0 0.0057703293914 0.0091279927455 0.012785703106 0.016501337703 0.019937010055 
0.022727796873 0.024549952284 0.025178280173 0.02452406955 0.022647908226 0.019745416125 0.016107974116 0.012064316304 0.0079119199156 
0 0 0.0070523773972 0.011241768472 0.015863399416 0.02059610117 0.024994042347 0.028577425258 0.030921752408 
0.031732645714 0.030895245965 0.028490879423 0.024778431278 0.020143014082 0.01501930638 0.0098006744581 0 0 
0.008144012726 0.013064964992 0.018548986653 0.024200668738 0.029473119904 0.033779286979 0.036600823494 0.03757909416 0.036575191242 
0.033690162513 0.029242331332 0.023704745018 0.01761146289 0.011445702585 0 0 0.0089713209648 0.014461750015 
0.020626243993 0.027008703972 0.032979726356 0.037864823854 0.041069261797 0.04218220955 0.041045367836 0.037776078374 0.032741341779 
0.026486127805 0.019625739109 0.01271673436 0 0 0.009470702881 0.015314747925 0.021907623992 0.028753758121 
0.035170062796 0.040425210062 0.043874860687 0.045074350034 0.043852895789 0.040338568057 0.034930152981 0.028219511409 0.020874857605 
0.01350040153 0 0 0.0095983834938 0.015543276229 0.022264293757 0.029252838793 0.035808019427 0.041179662139 
0.044707017681 0.045934281963 0.04468664698 0.04109587559 0.035571434173 0.028720850851 0.021229932464 0.013718578619 0 
0 0.0093369070578 0.015115667198 0.021646277101 0.028435487104 0.034803095093 0.040020835956 0.043447142168 0.044639389036 
0.043427784487 0.039940204852 0.034574125298 0.027919218468 0.020640978598 0.013340721614 0 0 0.0086975327086 
0.01405370236 0.020089570782 0.026353926238 0.032223530229 0.037030475973 0.040185988354 0.041283609922 0.040167137976 0.036953449714 
0.032006678617 0.025867065214 0.019144095568 0.012388227509 0 0 0.0077181897813 0.012428510539 0.01770917097 
0.023172742796 0.028282643664 0.03246290807 0.035205236658 0.036158330484 0.035186729164 0.032390570524 0.02808321423 0.022729662293 
0.01685423481 0.010930160021 0 0 0.0064574653808 0.010348721344 0.014679186256 0.01913970308 0.023300395119 
0.026698754314 0.02892594321 0.029698940776 0.028908084546 0.026633029358 0.023124658159 0.018755374939 0.013944760146 0.0090711231587 
0 0 0.0049858777672 0.0079430143531 0.011203285741 0.014542205186 0.017645916787 0.020175669151 0.021831370181 
0.022404833664 0.021814889988 0.020119166578 0.017500724679 0.014231402499 0.010617151883 0.0069334194106 0 0 
0.0033763706338 0.0053402578641 0.0074803044498 0.009656071734 0.011669600317 0.013306285036 0.014375465571 0.014744511817 0.01436131383 
0.013261825262 0.011561507563 0.0094319065615 0.0070658589311 0.0046366999967 0 0 0 0 
0 0 0 0 0 0 0 0 0 
0 0 0 0 
