# vtk DataFile Version 5.1
vtk output
ASCII
DATASET STRUCTURED_POINTS
DIMENSIONS 16 16 1
SPACING 1 1 1
ORIGIN 0 0 0
POINT_DATA 256
SCALARS scalars double
LOOKUP_TABLE default
0 0 0 0 0 0 0 0 0 
0 0 0 0 0 0 0 0 -0.0041888218246 
-0.0027549240226 0.00055999176414 0.005034464713 0.0098203367027 0.014071796161 0.01707354869 0.018348685719 0.017729897095 0.015382971298 
0.011778316824 0.0076134509772 0.0036958026804 0.00079953140946 0 0 -0.0058985115664 0.00060402529519 0.012053369503 
0.026394230133 0.041197562493 0.054036149793 0.062855037177 0.066283473457 0.063842047979 0.056013632137 0.044166630998 0.030340545086 
0.016923309467 0.0062637484401 0 0 -0.0078032722317 0.0060047080948 0.028942165255 0.057099071081 0.085862887796 
0.11062611843 0.12748787827 0.13384623612 0.12879268437 0.11324904417 0.08982543972 0.062419493469 0.035614955211 0.013966357744 
0 0 -0.0098572994178 0.012446642248 0.048655089915 0.092721088235 0.13752873476 0.17597501862 0.20204762778 
0.21173695882 0.20364459401 0.17919593282 0.14242433473 0.099358771564 0.057106596893 0.022768396392 0 0 
-0.011849659149 0.018895081879 0.068252665977 0.12805875207 0.18872447415 0.24068457267 0.27584458212 0.2888072457 0.277691736 
0.24442107442 0.19443397772 0.13586490267 0.078316989925 0.031414676456 0 0 -0.013507369413 0.024375455718 
0.084835291484 0.15791979731 0.2319556051 0.29530364083 0.33811645668 0.35382885655 0.34015433824 0.29943551104 0.23829533915 
0.16664291218 0.096186323176 0.038681288464 0 0 -0.014575317004 0.028085211971 0.095960746711 0.17790598921 
0.26085835315 0.33179742301 0.37970846542 0.39724876648 0.38186197828 0.33617048826 0.26758641087 0.18720151188 0.10812719586 
0.043541012201 0 0 -0.01487540475 0.029495830854 0.10000237406 0.18507943477 0.27117663289 0.34478889976 
0.39449215821 0.41267118298 0.39667524375 0.34922517765 0.27801029221 0.19453771784 0.11241183359 0.045309957931 0 
0 -0.01434337724 0.028423370758 0.096389831761 0.17840806485 0.26141401379 0.33238665795 0.38031124496 0.39784543354 
0.38243353938 0.33669888514 0.26805483252 0.18759478166 0.10843224028 0.043747388477 0 0 -0.013041166207 
0.025053712632 0.085693782886 0.15892179978 0.23306198642 0.29647458022 0.33931251026 0.35501158349 0.34128670895 0.30048228716 
0.23922356909 0.16742263186 0.096791488195 0.039090893077 0 0 -0.011143692633 0.019917864414 0.069541047966 
0.12955533689 0.19036977666 0.24241952399 0.27761181084 0.29055157766 0.2793603252 0.24596351837 0.19580269944 0.13701599256 
0.079211587432 0.032020831685 0 0 -0.0089006023353 0.013822421529 0.050373910005 0.094701604265 0.13969025246 
0.1782405181 0.20434473852 0.21399767499 0.20580441324 0.18119302112 0.14419923585 0.1008550566 0.058272661156 0.023560350864 
0 0 -0.0065741872085 0.0077496145441 0.031092444158 0.059544323326 0.088500371489 0.11336358972 0.13024334479 
0.13654579992 0.13136748997 0.11563230865 0.091950492565 0.064219612252 0.037025488709 0.014929149314 0 0 
-0.0043532454951 0.0027493949099 0.014638168095 0.029271930471 0.04424318196 0.057147540281 0.065950036849 0.069294207353 0.066707749055 
0.058673540234 0.046554611089 0.032382950532 0.018541198129 0.0073796960366 0 0 0 0 
0 0 0 0 0 0 0 0 0 
0 0 0 0 
