# vtk DataFile Version 5.1
vtk output
ASCII
DATASET STRUCTURED_POINTS
DIMENSIONS 16 16 1
SPACING 1 1 1
ORIGIN 0 0 0
POINT_DATA 256
SCALARS scalars double
LOOKUP_TABLE default
0 0 0 0 0 0 0 0 0 
0 0 0 0 0 0 0 0 -0.0074489333989 
-0.0063582559113 -0.0029213890274 0.0019391773547 0.007214984452 0.01193263306 0.015282973099 0.016733243186 0.016102147122 0.013584691483 
0.0097216744838 0.0053170948751 0.0013142803761 -0.0013529186842 0 0 -0.0094007062744 0.00028649254109 0.017221207064 
0.038312742836 0.059989774422 0.078719056025 0.091525005856 0.096430814718 0.092752819317 0.081202117787 0.063776626746 0.043458230666 
0.023758241729 0.0081750040973 0 0 -0.010993015659 0.011413551447 0.047890545395 0.092283262318 0.13740221258 
0.17609727986 0.20232939436 0.21207848961 0.20394963485 0.17938448407 0.14244485655 0.099199829029 0.056806941022 0.022422371076 
0 0 -0.01240392405 0.024952290154 0.08422523154 0.15571014335 0.22803546666 0.28987241888 0.33164258571 
0.34696508443 0.33362331436 0.29390390845 0.23425578631 0.16432039326 0.095479337837 0.039137980003 0 0 
-0.013624214804 0.038664382195 0.12063081155 0.21904429414 0.31838692541 0.40318926822 0.46036636034 0.48119855165 0.4626555238 
0.40786183686 0.32563314413 0.22915384741 0.13399784132 0.055794232039 0 0 -0.014557214012 0.050397764739 
0.15157496658 0.27276259786 0.39494127446 0.49914639137 0.56933358706 0.59480957585 0.57185759418 0.50430989639 0.4029805879 
0.2840462375 0.16662279326 0.069911041667 0 0 -0.015086570057 0.058363696494 0.17239504526 0.30880531764 
0.44623890829 0.56339989 0.64227020987 0.67084044324 0.64493621143 0.56886203946 0.45476535507 0.3208191982 0.18850344547 
0.079403688276 0 0 -0.015121899151 0.061381243849 0.17998831565 0.3217963553 0.46462776241 0.58636657002 
0.66830057421 0.69795752711 0.67100223837 0.59190554875 0.47328413793 0.33401365233 0.19640597492 0.08288628998 0 
0 -0.014625750704 0.059043702769 0.17327505832 0.30985918551 0.4474333057 0.56469466626 0.64361955158 0.6721948873 
0.64624530268 0.57007724946 0.45584280096 0.32172173823 0.18920187494 0.079876992298 0 0 -0.013622719867 
0.05177724992 0.1533611809 0.2749032045 0.39736913395 0.50178002273 0.57207945779 0.59756630427 0.57452160014 0.50678164453 
0.40517040078 0.28587873398 0.16803932097 0.070869980318 0 0 -0.012190785083 0.040781447896 0.12337453068 
0.222336368 0.32212566529 0.40724959969 0.46460315117 0.48545339509 0.46676612059 0.41167245336 0.32900434812 0.23196984948 
0.13617027888 0.057262087004 0 0 -0.010434710401 0.027861790144 0.088000350091 0.16024782442 0.23319907329 
0.29549015759 0.33751171782 0.35286199681 0.33931792159 0.29917586202 0.23890957574 0.16819660966 0.098460097603 0.041145758283 
0 0 -0.0084404018158 0.015183750061 0.052788683186 0.098185282919 0.14413759241 0.18344390283 0.21001850772 
0.21980929868 0.21141080977 0.1862785477 0.14851095013 0.10423062467 0.060656404736 0.025002653032 0 0 
-0.0062059006847 0.0049933228691 0.02334273386 0.0457135572 0.068469926575 0.088002540175 0.10126574151 0.10623394239 0.10220654156 
0.089913886948 0.071407022363 0.049746299712 0.028533203633 0.011350781822 0 0 0 0 
0 0 0 0 0 0 0 0 0 
0 0 0 0 
