# vtk DataFile Version 5.1
vtk output
ASCII
DATASET STRUCTURED_POINTS
DIMENSIONS 16 16 1
SPACING 1 1 1
ORIGIN 0 0 0
POINT_DATA 256
SCALARS scalars double
LOOKUP_TABLE default
0 0 0 0 0 0 0 0 0 
0 0 0 0 0 0 0 0 -0.0026393375993 
-0.0034840337088 -0.002717110898 -0.00081297483855 0.0016140898719 0.0039352137676 0.0056148355955 0.0062964273253 0.0058582381133 0.0044329640842 
0.0023892746531 0.00027804742386 -0.0012488323474 -0.0015338695389 0 0 -0.0047726020665 -0.0038793093918 0.0017202608652 
0.010379068678 0.020098319276 0.028867449379 0.034982865213 0.037310442601 0.0354587253 0.029839864041 0.021610286957 0.012499696147 
0.0045521914253 -0.00018628669993 0 0 -0.0066063831578 -0.0020047255904 0.011587198017 0.030783783465 0.051590094889 
0.070023492933 0.082719561119 0.087439503665 0.083407184612 0.071427573883 0.053769738921 0.033831372893 0.015632991554 0.0032126404684 
0 0 -0.0081982998477 0.0012616031556 0.024633221925 0.056477245196 0.09046800185 0.1203318881 0.14077956856 
0.14829305235 0.14165012766 0.12210853748 0.093222944905 0.060321539479 0.029719510194 0.007785837318 0 0 
-0.0095290720069 0.0050157293352 0.038338503328 0.082941817979 0.1301769897 0.17149340424 0.1996915366 0.20998511537 0.20070953841 
0.1735704681 0.13339620759 0.087430186341 0.044269336032 0.0126106794 0 0 -0.01054492726 0.0084088982824 
0.050242825107 0.10571185853 0.16420056386 0.21523384578 0.24999972591 0.26264236484 0.25112423784 0.21752839885 0.16775717527 
0.11067103049 0.056796555794 0.016804526214 0 0 -0.011186215944 0.010744855305 0.05828658336 0.12102521035 
0.18703287362 0.24455217359 0.28369805234 0.29790365774 0.28488382155 0.24697256191 0.19078663047 0.12626328591 0.065215889272 
0.019633725079 0 0 -0.011406827122 0.011568777109 0.061105082279 0.12637799388 0.19500199209 0.25477453258 
0.29543921657 0.31018374972 0.29663781887 0.25722256811 0.19880233966 0.13168821618 0.068141655478 0.020613072388 0 
0 -0.011185052531 0.010729750461 0.058227827741 0.12089651375 0.18681907103 0.24425510693 0.28333709301 0.29751133404 
0.28449818335 0.2466285526 0.19050890001 0.12606258494 0.065090326811 0.019574627556 0 0 -0.010525168433 
0.0084060711149 0.050151603896 0.10546962676 0.16377109498 0.21462027327 0.24924515041 0.26181950585 0.25031787904 0.21681564946 
0.16719093363 0.11027151323 0.056554103903 0.016693698906 0 0 -0.009448372253 0.0050909878958 0.038277432857 
0.082622273168 0.12952869143 0.17052013007 0.19847044203 0.20864670557 0.19940515121 0.17243596624 0.13252119656 0.086841503409 
0.043935434805 0.012468920267 0 0 -0.0079705170848 0.0015458352867 0.024724447449 0.056150663636 0.089597074428 
0.11892168073 0.13896129922 0.14628756209 0.13971168613 0.12046258584 0.092012295105 0.05957523118 0.029356798798 0.0076635304523 
0 0 -0.0060601822426 -0.001262063909 0.012055520041 0.030576703027 0.050491462481 0.068045096653 0.080083198212 
0.084512563171 0.080609163287 0.06912731464 0.052194395659 0.033008181315 0.015384662222 0.0032278852843 0 0 
-0.0035582400622 -0.0022074177294 0.0029667422075 0.010507638776 0.018760191505 0.026099056774 0.031160997479 0.033042526041 0.031432257142 
0.026658130815 0.019643010871 0.011776910254 0.0047295322445 0.00024533155157 0 0 0 0 
0 0 0 0 0 0 0 0 0 
0 0 0 0 
