# vtk DataFile Version 5.1
vtk output
ASCII
DATASET STRUCTURED_POINTS
DIMENSIONS 16 16 1
SPACING 1 1 1
ORIGIN 0 0 0
POINT_DATA 256
SCALARS scalars double
LOOKUP_TABLE default
0 0 0 0 0 0 0 0 0 
0 0 0 0 0 0 0 0 0.0037808370646 
0.008478366649 0.013640028844 0.018789557466 0.023420747485 0.027042966893 0.029243356311 0.029744774945 0.028446579389 0.025441726723 
0.021009575056 0.015590426298 0.0097582453068 0.0042292368967 0 0 0.009766762187 0.024299706866 0.042111353017 
0.061187900574 0.079212198857 0.093881555545 0.10324478315 0.10599352525 0.10165891568 0.090684544479 0.074367881234 0.054684333412 
0.034032482542 0.014965790515 0 0 0.017528609843 0.045835443987 0.081979011685 0.12162662167 0.15967366992 
0.19100962763 0.2112951541 0.21762079905 0.20894544556 0.18625296936 0.15240811578 0.11173465247 0.069382789797 0.030594511734 
0 0 0.02617318598 0.070302480371 0.12777439932 0.19152193837 0.253127534 0.30413567321 0.3373625674 
0.34799363859 0.33430591835 0.29792081499 0.24355783097 0.1783191588 0.11060119779 0.048797454763 0 0 
0.034560701736 0.094288662388 0.17291719596 0.26064664922 0.34573729335 0.41637910081 0.46254171445 0.47750919581 0.45887787598 
0.40890002903 0.33413938211 0.24446909856 0.15152796024 0.066855773885 0 0 0.041518104748 0.11432991419 
0.21077494623 0.31873740898 0.42365774446 0.51088222298 0.56797603964 0.5866241187 0.56385080842 0.50243433242 0.41048530421 
0.30021305663 0.18600021107 0.082053058894 0 0 0.046037804806 0.12746886336 0.23570572766 0.3570869294 
0.47516977291 0.57340448549 0.63775922819 0.65886162716 0.63335835014 0.56437249756 0.46103523034 0.3371056593 0.20879419607 
0.092086645922 0 0 0.047440564852 0.13171925326 0.24392901193 0.36987223078 0.49245210906 0.59446060793 
0.66131248091 0.68326980024 0.65684853431 0.585289983 0.47807697895 0.34950451061 0.21641647515 0.095415790222 0 
0 0.045482569202 0.12637241866 0.23409967105 0.35502501208 0.47273061037 0.57069056017 0.63489208051 0.65597451255 
0.63058782793 0.561849713 0.45887730546 0.33540824693 0.20762697784 0.091492998913 0 0 0.040393606546 
0.11210539257 0.20750875653 0.31453350459 0.41867287939 0.50532489382 0.56209694605 0.5807005124 0.55816769232 0.49726460271 
0.4060705206 0.29674754187 0.18362223291 0.08084568226 0 0 0.032842465666 0.09087765807 0.1678864529 
0.25414191842 0.33799241021 0.40771627731 0.45335685134 0.46824569134 0.44999359045 0.40083170616 0.32726872229 0.23909577374 
0.14785592266 0.064997883048 0 0 0.023835744368 0.065631921548 0.12083296286 0.18248081231 0.24229558517 
0.29196198416 0.32441475213 0.33491706888 0.32177069099 0.28656383139 0.23392773982 0.17083288485 0.10552204881 0.046245298487 
0 0 0.01456763952 0.039843068147 0.072955485323 0.1097393092 0.14530299908 0.17475242069 0.19393168281 
0.20005293011 0.19211545849 0.17105424558 0.13959962018 0.10187149896 0.062776561489 0.027322923966 0 0 
0.0062527010152 0.016985251622 0.030838306572 0.046073685641 0.0607051858 0.072759002185 0.080561528338 0.082989573046 0.079638663234 
0.070883759016 0.057825243196 0.042132529092 0.025821429717 0.011037825639 0 0 0 0 
0 0 0 0 0 0 0 0 0 
0 0 0 0 
