# vtk DataFile Version 5.1
vtk output
ASCII
DATASET STRUCTURED_POINTS
DIMENSIONS 16 16 1
SPACING 1 1 1
ORIGIN 0 0 0
POINT_DATA 256
SCALARS scalars double
LOOKUP_TABLE default
0 0 0 0 0 0 0 0 0 
0 0 0 0 0 0 0 0 -0.0023024420445 
-0.001972447664 0.00061060646967 0.004678888598 0.0092726425586 0.013418340503 0.016288974191 0.017333670176 0.016362619591 0.013577793121 
0.0095467969708 0.0051252409844 0.0013425285082 -0.00072018767177 0 0 -0.0032609324677 0.0023674651981 0.015169348928 
0.032366962795 0.05062929263 0.066615642576 0.077496798291 0.081387447001 0.077631927601 0.066905653923 0.051120106391 0.033146297601 
0.016398427416 0.0043421239936 0 0 -0.0032783315755 0.01144479387 0.040356882131 0.077687609789 0.11663199653 
0.15040188289 0.17325939095 0.18138224213 0.17343625243 0.15077653394 0.11725175203 0.078638704809 0.041787280527 0.013601131319 
0 0 -0.0027056145126 0.023250888511 0.071538385572 0.1328523376 0.19631251961 0.25109996683 0.28808375307 
0.30118591234 0.28828143302 0.25151196271 0.19697499724 0.13382723609 0.072923469752 0.025192820181 0 0 
-0.0018689572002 0.035549673924 0.10338432512 0.18878985697 0.27681639975 0.35262916659 0.40372616773 0.42179500575 0.4039281041 
0.35304244364 0.27745973912 0.1896908302 0.10457744145 0.037070333824 0 0 -0.0010593452401 0.046162084119 
0.13062880852 0.23648933937 0.34534403766 0.43896091642 0.50199597244 0.52426095595 0.50219296872 0.43935703665 0.34594088119 
0.23728197354 0.13159457748 0.04724068754 0 0 -0.00050881114993 0.053265682469 0.14883767975 0.26834519742 
0.39108464879 0.49655970522 0.56753883231 0.59259356647 0.56772915044 0.4969375935 0.39164031422 0.26905231301 0.14963643567 
0.05403429102 0 0 -0.00036586918726 0.055653728814 0.15506113158 0.27929029771 0.40683469076 0.51641183509 
0.59013744896 0.61615592803 0.5903243808 0.51678200818 0.40737602551 0.27997191891 0.15581470363 0.056341961334 0 
0 -0.00067702463754 0.05291069556 0.1482696853 0.26754618897 0.39005888705 0.49534111654 0.5661900739 0.59119789744 
0.56637791064 0.49571645142 0.39061733704 0.26827088426 0.1491154081 0.053775544694 0 0 -0.0013772119558 
0.045478343588 0.12951079699 0.23488682159 0.34325763289 0.43645875915 0.49921135774 0.52137375596 0.49940097094 0.43684435244 
0.34385058688 0.23570002651 0.13055061515 0.046726729495 0 0 -0.0022884693646 0.034605575934 0.10176649331 
0.18638288278 0.2735998869 0.34870686701 0.39932036613 0.41721204041 0.3995057577 0.3490918397 0.27421483036 0.18727840053 
0.10301848805 0.036317210148 0 0 -0.0031216973541 0.022195580422 0.069536114762 0.12966105504 0.19186109911 
0.24553259743 0.28174596982 0.29456411225 0.28191313479 0.24588681538 0.19244762595 0.13056307418 0.070897144594 0.024253237448 
0 0 -0.0034678409797 0.010586012964 0.038212210364 0.07378303229 0.11080097077 0.14284257652 0.16450093842 
0.17218135362 0.16463004724 0.14312086589 0.11127596263 0.074548065458 0.039444666161 0.012622250709 0 0 
-0.002744103627 0.0023218308243 0.013356289045 0.027915606362 0.043220359892 0.05653489222 0.065560306706 0.068769555961 0.065631296652 
0.056689743818 0.043490488082 0.02836627713 0.014123812625 0.0037088013227 0 0 0 0 
0 0 0 0 0 0 0 0 0 
0 0 0 0 
