# vtk DataFile Version 5.1
vtk output
ASCII
DATASET STRUCTURED_POINTS
DIMENSIONS 16 16 1
SPACING 1 1 1
ORIGIN 0 0 0
POINT_DATA 256
SCALARS scalars double
LOOKUP_TABLE default
0 0 0 0 0 0 0 0 0 
0 0 0 0 0 0 0 0 0.0034687184614 
0.0070162209696 0.010385948459 0.013394256649 0.015879037351 0.01769248639 0.018711314903 0.018851371877 0.01807968674 0.016420644058 
0.01395619659 0.010823770619 0.0072214826277 0.0034430698202 0 0 0.0083047633814 0.018152281837 0.028810812049 
0.039395779394 0.048919388392 0.056405008427 0.061022753199 0.062212294237 0.059768083139 0.053872108604 0.045070354718 0.034201143503 
0.022296588591 0.010492844133 0 0 0.014275116946 0.032535663591 0.053434747092 0.075022573401 0.095000051883 
0.11105492006 0.12121316548 0.12414277078 0.11935900891 0.1072988602 0.089254287414 0.06717776894 0.043396390968 0.020290023176 
0 0 0.020779327549 0.048512810721 0.08117271526 0.11555588985 0.14779300149 0.17396185251 0.19070584637 
0.19575953996 0.18829989958 0.16907035753 0.14025977135 0.1051553843 0.067623941108 0.031503126207 0 0 
0.027021721384 0.064001062439 0.10825044269 0.15531816074 0.1997576057 0.23602410529 0.25936601451 0.26657559648 0.25648762308 
0.23015297643 0.19066209822 0.14264272842 0.091503804368 0.042536017105 0 0 0.032171887905 0.076862051282 
0.13083334405 0.18857931712 0.24331507795 0.28811703822 0.31704744234 0.32609737041 0.31381018051 0.28149675478 0.23301178161 
0.1741195831 0.11153578004 0.051779828718 0 0 0.035511398331 0.085258723487 0.1456429232 0.21045611235 
0.27202080124 0.32249274144 0.3551421397 0.36542512463 0.35169017976 0.31542090467 0.26098096499 0.1948921193 0.12474072206 
0.057864188863 0 0 0.036553538805 0.087951644084 0.1504734642 0.21766969088 0.28155370719 0.33396156113 
0.36788804549 0.3786030559 0.36438692334 0.32678270773 0.27033022201 0.20181346249 0.12911993953 0.059869131338 0 
0 0.035121917607 0.084494818228 0.14453479812 0.2090488559 0.27037334029 0.32067581988 0.35323536009 0.36351325737 
0.34985899966 0.3137528052 0.2595506314 0.19376265601 0.12396072483 0.057466148118 0 0 0.031377870322 
0.075304028747 0.12857195259 0.18570567442 0.23994889873 0.28440264836 0.31314778889 0.32218641476 0.31006419193 0.27808505913 
0.23008761599 0.17181193126 0.10994327175 0.050967662095 0 0 0.025793154591 0.061588275885 0.10474459003 
0.15085812278 0.19452764026 0.23024793861 0.25329761951 0.26048720193 0.25065572351 0.22484327986 0.18611454958 0.13905807167 
0.089033553073 0.041277898614 0 0 0.01907186527 0.045154097153 0.07628345445 0.1093249487 0.14047489737 
0.16586879231 0.18219488383 0.18721547066 0.18011489513 0.16162173814 0.13388762056 0.10014205255 0.064178191075 0.029753069821 
0 0 0.012032549689 0.028110313569 0.046973173911 0.066766073197 0.085281259591 0.1002872919 0.10987397742 
0.11274991729 0.10844277955 0.097370708082 0.080774927499 0.060526914742 0.038847014849 0.017993667081 0 0 
0.0054673092989 0.012513733824 0.020535617533 0.028781039078 0.036386340168 0.042485337272 0.04633717119 0.047440070492 0.045608923138 
0.041003542154 0.034103990552 0.02563976737 0.016492039489 0.0076068547312 0 0 0 0 
0 0 0 0 0 0 0 0 0 
0 0 0 0 
