# vtk DataFile Version 5.1
vtk output
ASCII
DATASET STRUCTURED_POINTS
DIMENSIONS 16 16 1
SPACING 1 1 1
ORIGIN 0 0 0
POINT_DATA 256
SCALARS scalars double
LOOKUP_TABLE default
0 0 0 0 0 0 0 0 0 
0 0 0 0 0 0 0 0 -0.0009596323427 
0.0010632931794 0.0055173101496 0.011455316871 0.017729446177 0.023186708653 0.026851732784 0.028075634559 0.026633338393 0.022759426418 
0.017120670311 0.010731844532 0.0048339009264 0.00077638738409 0 0 0.00026708882188 0.011243031104 0.03064448383 
0.054929011702 0.079890906617 0.10132711875 0.11568469549 0.12059745665 0.11523839973 0.10044515923 0.07860655644 0.053327305536 
0.028921222101 0.0098192029632 0 0 0.0031143064389 0.028343218267 0.070749263938 0.12291152676 0.17608983425 
0.22157291981 0.25200615565 0.26249420786 0.2513213158 0.22020299573 0.17404486511 0.12023578236 0.06756515983 0.024925190581 
0 0 0.0068926525827 0.049297019152 0.11911307307 0.20433689808 0.29088861008 0.36476325951 0.41415887041 
0.43123320638 0.41323556027 0.36289510101 0.28803858072 0.20046462477 0.11419367398 0.043347177401 0 0 
0.0108458539 0.070575562415 0.16790809487 0.28624449516 0.40616082487 0.50837198851 0.57666785824 0.600307628 0.57552659458 
0.50604121226 0.4025450283 0.28120007304 0.16123659561 0.062006298503 0 0 0.014242604409 0.088693446918 
0.20936360032 0.35574698348 0.50388045593 0.63001204276 0.71423474817 0.74340409524 0.71292037039 0.62730940447 0.49963876214 
0.34972706384 0.20121022355 0.077883581084 0 0 0.016474902576 0.10071911594 0.23692909801 0.40198240035 
0.56887897172 0.71089042938 0.80566869216 0.83850111381 0.80424762081 0.70795623206 0.5642421786 0.39533808594 0.22781577308 
0.088444834391 0 0 0.017142133125 0.1047047241 0.2462461579 0.41772868365 0.5910934141 0.73857861431 
0.83699438008 0.87109177199 0.83554708849 0.73558595859 0.58635327111 0.41091488547 0.23686304352 0.092005563252 0 
0 0.016107567137 0.099971103815 0.23578603932 0.4004466654 0.56698461023 0.70870938686 0.80330686135 0.83608706274 
0.80191819643 0.70584167066 0.56245217222 0.39395147175 0.22687779859 0.087973834822 0 0 0.01352127439 
0.087211780736 0.20707487679 0.35263991409 0.50001436528 0.62553187811 0.70936330404 0.73841700496 0.70811243365 0.6229589185 
0.49597491185 0.34690725627 0.19931576711 0.076937551892 0 0 0.0098095346577 0.068406947609 0.16448467217 
0.28150460948 0.40017041817 0.50135258811 0.56898371664 0.59242100537 0.56793490152 0.4992090101 0.39684286474 0.27686390173 
0.15836234334 0.060587630129 0 0 0.00563731919 0.046563956678 0.11461636068 0.19789655982 0.28254622589 
0.35482625653 0.40317720269 0.41992350323 0.40237338024 0.35319707889 0.28005646089 0.19451469087 0.11034577777 0.041492779027 
0 0 0.0018623526969 0.025331624244 0.065359125643 0.11472833716 0.16508497242 0.20816112714 0.23699861921 
0.24697224221 0.2364605015 0.20708045263 0.16346364648 0.11260151786 0.062852074427 0.022774157569 0 0 
-0.00047380169528 0.0085718086026 0.024775400065 0.045031376937 0.065807971306 0.08362726848 0.095566544999 0.099683635343 0.0952984596 
0.083093040584 0.065019814042 0.044034297034 0.023702053755 0.0077825512784 0 0 0 0 
0 0 0 0 0 0 0 0 0 
0 0 0 0 
