# vtk DataFile Version 5.1
vtk output
ASCII
DATASET STRUCTURED_POINTS
DIMENSIONS 16 16 1
SPACING 1 1 1
ORIGIN 0 0 0
POINT_DATA 256
SCALARS scalars double
LOOKUP_TABLE default
0 0 0 0 0 0 0 0 0 
0 0 0 0 0 0 0 0 -0.0017730038354 
-0.0027568434738 -0.0029895646371 -0.0026519492381 -0.0019910138955 -0.0012627466496 -0.00068560489759 -0.00040467324565 -0.00046878100161 -0.0008227525237 
-0.0013157075834 -0.0017247559305 -0.0017922066503 -0.0012741970421 0 0 -0.0035532286594 -0.0048360828654 -0.004152740901 
-0.0020886583219 0.00063103496854 0.0032740272 0.0052201923319 0.0060580097411 0.0056474934689 0.0041418728226 0.0019650716822 -0.00025255108917 
-0.0017731514017 -0.0018758416088 0 0 -0.0053932916603 -0.0064549408179 -0.0039467108368 0.00095040896024 0.0068426121023 
0.012343824691 0.016286602307 0.017897164594 0.016911137336 0.013613875203 0.0087994997858 0.0036540183653 -0.00042205932305 -0.0020294132386 
0 0 -0.0072163915903 -0.0077236640437 -0.0028509448815 0.0055164496918 0.01521066768 0.024096156973 0.03038076575 
0.032877956342 0.031181554261 0.025727090728 0.017730521796 0.0090132408791 0.0017389346852 -0.0018997083169 0 0 
-0.0088779818803 -0.0086907368442 -0.0013476095092 0.010558969731 0.024091812774 0.036374334497 0.044998358918 0.048370847995 0.045946044544 
0.038307376773 0.027086616784 0.014732791413 0.0041665103271 -0.0016266811462 0 0 -0.010212147698 -0.0093704217273 
0.00011813790673 0.015059774658 0.031866513844 0.047036843253 0.057643982009 0.061753011946 0.058700895115 0.049195590539 0.035219012594 
0.019749346489 0.0063468603049 -0.0013302237627 0 0 -0.011069468518 -0.0097602338025 0.0011853509162 0.018170695713 
0.037173522728 0.054276292062 0.066207508455 0.070805246629 0.067328731217 0.056568830832 0.040740396582 0.023173940596 0.0078563508831 
-0.0011043344601 0 0 -0.011346163149 -0.0098518072073 0.0016205984142 0.019332211855 0.039108955949 0.056888892835 
0.069281446206 0.074046555218 0.070416890592 0.059212210116 0.042728172262 0.024417746439 0.0084167316716 -0.0010088426944 0 
0 -0.011002386175 -0.0096364319886 0.001348478214 0.018353705696 0.03735958101 0.054454135381 0.066372176922 0.070956765086 
0.067469420471 0.056700212139 0.040860724423 0.023277250419 0.0079335121992 -0.0010627360942 0 0 -0.010067620461 
-0.009105424116 0.00046383530001 0.015442629028 0.032249893818 0.047397490229 0.05797329485 0.062053728897 0.058980753039 0.049460099043 
0.035465632955 0.019965096641 0.0065105973803 -0.0012409919363 0 0 -0.0086319535616 -0.0082447728489 -0.00077579921675 
0.011178299879 0.024695773238 0.03692638686 0.045489578879 0.048813027692 0.046359562419 0.038707551695 0.027472511899 0.015082124789 
0.0044393153315 -0.0014750899544 0 0 -0.0068227706515 -0.0070226442929 -0.0019746952514 0.0064351451699 0.016071747186 
0.024848539448 0.031022101402 0.033441221137 0.031713413853 0.026263869278 0.018277973718 0.0095361241268 0.0021654930559 -0.0016553814815 
0 0 -0.0047658576754 -0.0053666963883 -0.0026332378415 0.0022685315896 0.0080118917566 0.013298887243 0.017045077972 
0.018534849153 0.01752501474 0.014281503112 0.0095437506098 0.0044222076898 0.00024415906716 -0.0016302571583 0 0 
-0.0025253607979 -0.0031250318882 -0.0021814656133 -0.00021761593425 0.0021738889046 0.0044141396453 0.0060200122845 0.0066731301737 0.0062658310723 
0.0049174777084 0.0029588058285 0.0008868537441 -0.00070218162273 -0.0011897652215 0 0 0 0 
0 0 0 0 0 0 0 0 0 
0 0 0 0 
