# vtk DataFile Version 5.1
vtk output
ASCII
DATASET STRUCTURED_POINTS
DIMENSIONS 16 16 1
SPACING 1 1 1
ORIGIN 0 0 0
POINT_DATA 256
SCALARS scalars double
LOOKUP_TABLE default
0 0 0 0 0 0 0 0 0 
0 0 0 0 0 0 0 0 -0.0066286772365 
-0.0054081211712 -0.0023835502009 0.0016183439528 0.005814440756 0.0094977016768 0.012098621246 0.013247706121 0.012819943723 0.010949804947 
0.0080126195585 0.0045753681238 0.0013269407727 -0.00099521556035 0 0 -0.0054081211712 0.0085329103549 0.030456282871 
0.056710951412 0.083157744876 0.10572939665 0.12100830999 0.12672380504 0.12208641173 0.10790445363 0.086463365808 0.061185863304 
0.03612575235 0.015374456117 0 0 -0.0023835502009 0.030456282871 0.080109099356 0.13886596631 0.19774127783 
0.24779940087 0.28148865442 0.29377584202 0.28290536135 0.25066510251 0.20211741957 0.14483565116 0.087762335253 0.039862507189 
0 0 0.0016183439528 0.056710951412 0.13886596631 0.235647816 0.33242484198 0.41458606862 0.46975795142 
0.48968416108 0.47148185517 0.41808265107 0.33779073626 0.24302504482 0.14843650372 0.068685849072 0 0 
0.005814440756 0.083157744876 0.19774127783 0.33242484198 0.46696008202 0.58109002606 0.6576436075 0.68515736701 0.65962698078 
0.58512285867 0.4731764841 0.34103094248 0.20902158802 0.097484623825 0 0 0.0094977016768 0.10572939665 
0.24779940087 0.41458606862 0.58109002606 0.72227896884 0.81692410387 0.85084937024 0.81910203887 0.72671619238 0.58795392687 
0.4241402318 0.26042106469 0.12193754638 0 0 0.012098621246 0.12100830999 0.28148865442 0.46975795142 
0.6576436075 0.81692410387 0.923660698 0.96186571739 0.92595310761 0.82160074785 0.66489477059 0.4798869065 0.29493689751 
0.13839651669 0 0 0.013247706121 0.12672380504 0.29377584202 0.48968416108 0.68515736701 0.85084937024 
0.96186571739 1.0015797693 0.96418208607 0.85557764866 0.69249597637 0.49995050142 0.30743431809 0.1444313881 0 
0 0.012819943723 0.12208641173 0.28290536135 0.47148185517 0.65962698078 0.81910203887 0.92595310761 0.96418208607 
0.92819919958 0.82368602053 0.66673907818 0.48142524161 0.29612139309 0.13919565559 0 0 0.010949804947 
0.10790445363 0.25066510251 0.41808265107 0.58512285867 0.72671619238 0.82160074785 0.85557764866 0.82368602053 0.73096804445 
0.59170857611 0.42726562648 0.2628222325 0.12355423118 0 0 0.0080126195585 0.086463365808 0.20211741957 
0.33779073626 0.4731764841 0.58795392687 0.66489477059 0.69249597637 0.66673907818 0.59170857611 0.47897548273 0.34584000215 
0.21270093998 0.099952310753 0 0 0.0045753681238 0.061185863304 0.14483565116 0.24302504482 0.34103094248 
0.4241402318 0.4798869065 0.49995050142 0.48142524161 0.42726562648 0.34584000215 0.2496597893 0.15347772729 0.072044647575 
0 0 0.0013269407727 0.03612575235 0.087762335253 0.14843650372 0.20902158802 0.26042106469 0.29493689751 
0.30743431809 0.29612139309 0.2628222325 0.21270093998 0.15347772729 0.094256367984 0.044141611082 0 0 
-0.00099521556035 0.015374456117 0.039862507189 0.068685849072 0.097484623825 0.12193754638 0.13839651669 0.1444313881 0.13919565559 
0.12355423118 0.099952310753 0.072044647575 0.044141611082 0.020556791091 0 0 0 0 
0 0 0 0 0 0 0 0 0 
0 0 0 0 
