# vtk DataFile Version 5.1
vtk output
ASCII
DATASET STRUCTURED_POINTS
DIMENSIONS 16 16 1
SPACING 1 1 1
ORIGIN 0 0 0
POINT_DATA 256
SCALARS scalars double
LOOKUP_TABLE default
0 0 0 0 0 0 0 0 0 
0 0 0 0 0 0 0 0 -0.0022618334471 
-0.0018911387732 0.00073234993971 0.0048397575725 0.0094692390151 0.013644070105 0.01653344436 0.017583257056 0.016602365362 0.013793904278 
0.0097285550661 0.005265596694 0.0014375452981 -0.00067236249452 0 0 -0.0031797171505 0.0025304035789 0.015414205256 
0.032692162471 0.051029145748 0.06707756146 0.077999430067 0.081901646079 0.078125279574 0.067348660409 0.051490735532 0.033431005811 
0.016590368519 0.0044384976337 0 0 -0.0031569623998 0.011689167133 0.040726425998 0.078182826084 0.11724766863 
0.15112126732 0.17404918934 0.18219329673 0.17421256742 0.15146838965 0.11782476942 0.079074607267 0.042078946294 0.013746914419 
0 0 -0.0025456660752 0.023574530359 0.07203210509 0.13352264516 0.19716003164 0.25210811666 0.28920635611 
0.30234559057 0.28938689657 0.25248502816 0.19776794151 0.13442130546 0.073316494536 0.025387973278 0 0 
-0.0016741107648 0.035946199251 0.10399560791 0.18963342282 0.27790651704 0.35395673761 0.40523204863 0.42336245387 0.40541392091 
0.35432881094 0.27848548394 0.19044398351 0.10506854218 0.037312200378 0 0 -0.00083636736325 0.04661840842 
0.13133968306 0.23748693324 0.34666292172 0.44060665334 0.50389809563 0.52625573087 0.50407297095 0.44095719598 0.34718824542 
0.23817861454 0.13217046886 0.047521958354 0 0 -0.00026800314577 0.053760584504 0.14961483985 0.26945003058 
0.39257117654 0.49844904309 0.56975287022 0.59492800594 0.56991995659 0.4987789413 0.39305128052 0.2700500856 0.15026981752 
0.054341664021 0 0 -0.00012044921796 0.056159013416 0.1558572456 0.2804280938 0.40837636866 0.518385394 
0.59246243234 0.61861235488 0.59262600431 0.51870725382 0.40884150764 0.28100155095 0.15646523594 0.056656835124 0 
0 -0.0004413695106 0.053395360781 0.14903164266 0.26863098108 0.39152070436 0.49720154531 0.56837220842 0.59349954047 
0.56853755009 0.49753037543 0.39200583933 0.26925162533 0.1497373475 0.054077162924 0 0 -0.0011646094278 
0.045914077079 0.13019116753 0.23584440461 0.3445275803 0.43804779616 0.50105141168 0.52330493732 0.50122037627 0.4383907802 
0.34505350682 0.23656268466 0.13110355015 0.04699642366 0 0 -0.0021093820047 0.034970855202 0.10233160295 
0.18716621474 0.27461700936 0.34995083205 0.40073562537 0.41868702372 0.40090315804 0.35029904696 0.27517431636 0.18798038157 
0.10347480194 0.036541480719 0 0 -0.0029831660466 0.022476761701 0.06996715289 0.13024985412 0.19261045594 
0.24642928257 0.28274868271 0.29560184969 0.28290163387 0.24675431849 0.19315137571 0.13108773539 0.071242773869 0.024424368455 
0 0 -0.0033739241253 0.01077588872 0.038501181849 0.074173397914 0.11129049866 0.14341908562 0.16513749395 
0.17283669948 0.16525673001 0.14367714346 0.11173395353 0.07489421541 0.039674978754 0.012736933715 0 0 
-0.002696788438 0.0024172644527 0.013500887438 0.02810965494 0.043461651438 0.056816534114 0.065869100858 0.069086530729 0.065935036088 
0.056961038646 0.043715675804 0.028537791875 0.01423859158 0.00376614441 0 0 0 0 
0 0 0 0 0 0 0 0 0 
0 0 0 0 
