# vtk DataFile Version 5.1
vtk output
ASCII
DATASET STRUCTURED_POINTS
DIMENSIONS 16 16 1
SPACING 1 1 1
ORIGIN 0 0 0
POINT_DATA 256
SCALARS scalars double
LOOKUP_TABLE default
0 0 0 0 0 0 0 0 0 
0 0 0 0 0 0 0 0 0.0020047691315 
0.0037382304779 0.0051168490326 0.0061394518929 0.0068383283964 0.0072546011097 0.0074244026816 0.0073708367451 0.0070999012048 0.0065999104062 
0.0058447150561 0.0048018856451 0.0034488550298 0.0018048043271 0 0 0.0045346157122 0.0087913641833 0.012606842708 
0.015866654871 0.018470180473 0.020323659658 0.021346468227 0.021481361092 0.020703152691 0.019023010965 0.016487982924 0.013177995466 
0.0092058562933 0.0047304406692 0 0 0.0075205762512 0.014909042878 0.02194185179 0.028325181305 0.033712803711 
0.037750187561 0.040128304632 0.040633124887 0.039180192657 0.035827796575 0.03076693495 0.024291293889 0.016755483045 0.0085344051874 
0 0 0.010703894728 0.021501661414 0.032126535935 0.042075054544 0.050696749226 0.057307979503 0.061309499813 
0.062287688125 0.060082758432 0.054813044987 0.04685175013 0.036760401787 0.025190572475 0.012771010046 0 0 
0.013725297309 0.027791954058 0.041903027654 0.055348449298 0.067169102657 0.076344094639 0.081975498743 0.08344387204 0.080511579707 
0.073358488038 0.062544562305 0.04890468824 0.033390846681 0.0168838771 0 0 0.016204003637 0.032968111617 
0.049975878981 0.066344367814 0.080851920766 0.092189026849 0.099201410017 0.10109267998 0.097558081856 0.088829994346 0.075628126112 
0.059020697664 0.040214956562 0.020303967207 0 0 0.0178082683 0.036326898634 0.055229563116 0.073519580487 
0.089800348024 0.10256910969 0.11049952284 0.11267622316 0.10874916174 0.098985709094 0.084212412408 0.06565337802 0.044685868972 
0.022543358471 0 0 0.018312328949 0.037391183037 0.056909699618 0.075833446076 0.092705782057 0.10595681567 
0.11420003144 0.11647825022 0.11242531578 0.10232054251 0.087027437311 0.067823936115 0.046145588092 0.023273164037 0 
0 0.017633508651 0.035987083045 0.054742860028 0.072910619677 0.089098059747 0.10180485646 0.10970572271 0.11188544074 
0.10799349432 0.09829622482 0.083618399502 0.065181238572 0.044357637027 0.022375022477 0 0 0.015844780297 
0.032270311997 0.048977843027 0.065097515937 0.079415981703 0.09062810232 0.097581245159 0.099479017837 0.096015678881 0.087421737575 
0.074413698207 0.058054384723 0.039542504222 0.019958854844 0 0 0.013160962523 0.026697830458 0.040342238423 
0.053403977616 0.064935411084 0.073920753678 0.079463226108 0.080942573734 0.078119554133 0.071171776108 0.060655433302 0.047398456164 
0.03234069457 0.016344215286 0 0 0.0098999013839 0.019948090646 0.029920010245 0.039338500495 0.04756573464 
0.053921504392 0.0578052134 0.058800455247 0.056745069348 0.051755608613 0.044202606027 0.034641067536 0.023708310257 0.012007626123 
0 0 0.0064225066693 0.012799402436 0.018966663076 0.024660977062 0.029545466097 0.033262929076 0.0354971396 
0.036027467181 0.034766131148 0.031771596191 0.027236258165 0.021451595277 0.014759304455 0.007502791771 0 0 
0.0030559683679 0.0059796314743 0.0086864582238 0.011088918272 0.013083307333 0.014559603477 0.015419010702 0.015591189682 0.015046453827 
0.013800384098 0.011910318881 0.0094653906391 0.0065747161709 0.003363546714 0 0 0 0 
0 0 0 0 0 0 0 0 0 
0 0 0 0 
