# vtk DataFile Version 5.1
vtk output
ASCII
DATASET STRUCTURED_POINTS
DIMENSIONS 16 16 1
SPACING 1 1 1
ORIGIN 0 0 0
POINT_DATA 256
SCALARS scalars double
LOOKUP_TABLE default
0 0 0 0 0 0 0 0 0 
0 0 0 0 0 0 0 0 -0.0017729972249 
-0.0027568300924 -0.0029895444883 -0.0026519224748 -0.0019909809974 -0.0012627086315 -0.00068556346182 -0.00040463073252 -0.00046874005407 -0.0008227155941 
-0.0013156765552 -0.0017247320168 -0.0017921905135 -0.0012741889862 0 0 -0.0035532153267 -0.0048360559331 -0.0041527002678 
-0.0020886041224 0.0006311019793 0.0032741051424 0.00522027775 0.0060580976165 0.0056475780205 0.0041419487653 0.0019651351453 -0.00025250241647 
-0.0017731186579 -0.0018758252497 0 0 -0.0053932717069 -0.0064549004372 -0.0039466495847 0.00095049135153 0.0068427151064 
0.012343946014 0.016286736724 0.017897303608 0.016911270774 0.013613994029 0.0087995979954 0.0036540929363 -0.00042200951558 -0.0020293884357 
0 0 -0.0072163653104 -0.0077236106649 -0.0028508632783 0.0055165608022 0.015210808964 0.024096326812 0.030380957387 
0.032878156269 0.031181745302 0.02572725831 0.017730657751 0.0090133424738 0.0017390017981 -0.0018996750886 0 0 
-0.0088779499099 -0.008690671606 -0.001347508837 0.010559108892 0.024091993745 0.036374558296 0.044998617959 0.048371121448 0.045946304068 
0.038307599566 0.027086792834 0.014732920128 0.0041665941491 -0.0016266399555 0 0 -0.010212111159 -0.0093703468174 
0.00011825459398 0.015059938502 0.031866732169 0.047037121761 0.057644313266 0.061753365883 0.058701228517 0.049195870147 0.035219227228 
0.019749499698 0.0063469585741 -0.0013301758503 0 0 -0.011069429081 -0.0097601526564 0.0011854782405 0.018170876714 
0.037173768677 0.054276613593 0.066207898867 0.070805667461 0.067329125375 0.056569155558 0.040740640241 0.023174111222 0.0078564590107 
-0.0011042820658 0 0 -0.011346122937 -0.009851724329 0.0016207288775 0.019332398318 0.039109211431 0.056889230192 
0.069281859177 0.074047001862 0.070417307991 0.059212551594 0.042728426152 0.024417922822 0.0084168428784 -0.0010087889508 0 
0 -0.011002347501 -0.009636352333 0.0013486034029 0.018353884057 0.037359824027 0.054454453916 0.066372564397 0.070957183031 
0.067469811744 0.056700534021 0.040860965443 0.02327741884 0.0079336187536 -0.0010626845147 0 0 -0.010067585485 
-0.0091053522675 0.00046394757671 0.01544278736 0.032250105901 0.047397762173 0.057973619492 0.062054076264 0.058981079961 0.049460372428 
0.035465841955 0.01996524522 0.0065106923765 -0.0012409457119 0 0 -0.0086319240216 -0.008244712389 -0.0007757054785 
0.011178430265 0.024695944055 0.036926599662 0.045489826541 0.04881328973 0.046359810812 0.038707764054 0.027472678737 0.015082246069 
0.0044393939524 -0.0014750514323 0 0 -0.0068227477556 -0.0070225975971 -0.0019746234201 0.0064352437668 0.016071873729 
0.02484869297 0.031022275843 0.033441403689 0.031713588063 0.02626402133 0.018278096206 0.0095362150058 0.0021655527412 -0.0016553520452 
0 0 -0.004765842153 -0.005366664801 -0.0026331895463 0.0022685972112 0.0080119747324 0.013298986059 0.017045188382 
0.018534963789 0.017525124633 0.014281600407 0.0095438303572 0.0044222677216 0.00024419887288 -0.0016302374373 0 0 
-0.002525353027 -0.0031250160548 -0.0021814414721 -0.00021758331505 0.0021739298121 0.00441418788 0.0060200657029 0.0066731854033 0.0062658841348 
0.0049175250342 0.0029588449721 0.00088688343858 -0.00070216183718 -0.0011897554129 0 0 0 0 
0 0 0 0 0 0 0 0 0 
0 0 0 0 
