# vtk DataFile Version 5.1
vtk output
ASCII
DATASET STRUCTURED_POINTS
DIMENSIONS 16 16 1
SPACING 1 1 1
ORIGIN 0 0 0
POINT_DATA 256
SCALARS scalars double
LOOKUP_TABLE default
0 0 0 0 0 0 0 0 0 
0 0 0 0 0 0 0 0 -0.00079092692346 
0.0014007476854 0.0060221836215 0.012121826452 0.018543060068 0.024119709894 0.027860975464 0.029105049384 0.027621664024 0.023650222322 
0.017869975646 0.011310621381 0.0052258520252 0.00097380241773 0 0 0.00060436245112 0.011919213103 0.031659950884 
0.056276496372 0.081545782516 0.10323619621 0.11775917769 0.12271747481 0.11727141983 0.10227064249 0.080134138608 0.054501093864 
0.029712777641 0.010216818749 0 0 0.0036184564028 0.029357750715 0.072282588257 0.12496457702 0.17863900237 
0.22454645821 0.25526504619 0.26583653679 0.25451887992 0.22305313264 0.17640646739 0.12203298922 0.068768023747 0.025526626171 
0 0 0.0075573836166 0.05064148983 0.12116322239 0.20711823018 0.2944000619 0.36893086152 0.41878832817 
0.43600750345 0.41778474654 0.36690181422 0.2913064793 0.20291438096 0.11581484995 0.044152376033 0 0 
0.011656091156 0.072224008931 0.17044877842 0.28974836183 0.41068056124 0.51385879629 0.58286997079 0.60674875741 0.58163085786 
0.51133309687 0.40677166233 0.28430650779 0.16326281618 0.063004401711 0 0 0.015170307366 0.090591744255 
0.21232076679 0.35989447321 0.50935097016 0.63680891516 0.72205382369 0.75158065064 0.72062665301 0.63388317663 0.50477651059 
0.35342576743 0.20358675151 0.079044448801 0 0 0.017477109845 0.10277874729 0.2401637877 0.40657824749 
0.57504512151 0.71868612402 0.81475291481 0.84804779422 0.81320908356 0.71551049955 0.57005062645 0.39945375325 0.23042969008 
0.089713460862 0 0 0.018163557179 0.10680765286 0.24955996206 0.4224617455 0.5974868474 0.74671651494 
0.84652398594 0.88112528659 0.84495145608 0.74347808192 0.59238344545 0.41516106697 0.23954736753 0.09330497529 0 
0 0.017088056577 0.10198748948 0.23895621255 0.4049568853 0.57304437782 0.71637987841 0.81225252259 0.84549133112 
0.81074466743 0.7132777026 0.56816437664 0.39799466193 0.22944328813 0.089218182526 0 0 0.014405352431 
0.089023341456 0.20990308619 0.35661734327 0.50527560321 0.63208506865 0.71691496349 0.74631960659 0.71555824854 0.62930265474 
0.50092339963 0.35046205393 0.20159551336 0.078049737741 0 0 0.010553728179 0.069924291074 0.16683116392 
0.28475425181 0.40438081355 0.50648388303 0.57479981275 0.59846830903 0.57366322201 0.50416532173 0.40078970368 0.27975509422 
0.16024269008 0.061512074659 0 0 0.0062126056423 0.047730998684 0.11640427286 0.20033628225 0.28564546139 
0.3585249607 0.40730191787 0.42418454784 0.40643083116 0.35676083004 0.28295094436 0.19667452495 0.11176932433 0.042197906121 
0 0 0.0022522003857 0.026119231497 0.066556843716 0.11634444536 0.16710819676 0.210538779 0.23961841945 
0.24966548844 0.23903479401 0.20936642139 0.16534712648 0.11402603931 0.063800373286 0.023246600954 0 0 
-0.00027736162308 0.0089676279435 0.025374573134 0.045834467807 0.066804971479 0.084788812531 0.09683780863 0.10098694964 0.096546751175 
0.084208208487 0.065945971063 0.044740141605 0.024174676554 0.0080188410573 0 0 0 0 
0 0 0 0 0 0 0 0 0 
0 0 0 0 
