# vtk DataFile Version 5.1
vtk output
ASCII
DATASET STRUCTURED_POINTS
DIMENSIONS 16 16 1
SPACING 1 1 1
ORIGIN 0 0 0
POINT_DATA 256
SCALARS scalars double
LOOKUP_TABLE default
0 0 0 0 0 0 0 0 0 
0 0 0 0 0 0 0 0 0.0029868394308 
0.0078958082532 0.01412857714 0.020913200817 0.027372369459 0.032637019632 0.035970941604 0.036880516858 0.03519030528 0.03107284832 
0.025030367254 0.01783723904 0.010466897566 0.0040527957288 0 0 0.0086921934876 0.025546633217 0.048419493858 
0.074231755363 0.099384861007 0.12028575073 0.13388536817 0.13814073828 0.1323269945 0.11715170469 0.094656986384 0.067931591744 
0.040691752589 0.016823084665 0 0 0.016532304358 0.050721694027 0.098171089629 0.15233926697 0.20550909097 
0.24995269975 0.27910661409 0.28857235807 0.2767878018 0.24526693519 0.19837380435 0.14267019017 0.085945516305 0.036090419791 
0 0 0.025477643653 0.079866761906 0.1561406216 0.24367672392 0.32988600216 0.40214251421 0.44971687059 
0.4654170353 0.44668575967 0.39598760089 0.32042757167 0.23066144027 0.13926642062 0.058823061165 0 0 
0.034259338372 0.10870663459 0.21369931491 0.33453770223 0.45375767015 0.55382833263 0.61984685157 0.641821508 0.61619613349 
0.54638398534 0.4422294318 0.3184782759 0.1924870687 0.081514918764 0 0 0.041586422159 0.13293020269 
0.26217839117 0.41117890252 0.55833615876 0.68196082024 0.76361092044 0.79091996473 0.75948350635 0.67351730082 0.54518540947 
0.39269696539 0.2374547495 0.10067859186 0 0 0.046354807223 0.14886579857 0.29420787257 0.46192695127 
0.62767170085 0.76697862011 0.85904453879 0.88991834992 0.85462911992 0.75792705309 0.61352239861 0.44193302004 0.26725910004 
0.1133611014 0 0 0.047822009063 0.15405056023 0.3048489328 0.47896279325 0.65108341802 0.79578410042 
0.8914421582 0.92355653495 0.88695946387 0.78658607283 0.63668245661 0.45856708026 0.27727611274 0.11758692827 0 
0 0.045723912726 0.14761092486 0.29235046917 0.45951362092 0.62478261353 0.76373028095 0.8555856809 0.88641958883 
0.85126835 0.75487339339 0.6109218107 0.43989848166 0.2658673064 0.11265588951 0 0 0.040317718211 
0.13039900572 0.25841698164 0.40627207184 0.55244147901 0.6753154088 0.75652258915 0.78374454816 0.75259284745 0.66726401988 
0.53987125588 0.38855119342 0.2346273252 0.099249538294 0 0 0.032346614721 0.10486683392 0.20794910782 
0.32697979916 0.44462028058 0.54347803704 0.60877321231 0.63059759303 0.60542296533 0.53662933378 0.43397245824 0.31207130431 
0.18814399069 0.079331341374 0 0 0.022935254779 0.074701686924 0.14829890652 0.23323953898 0.3171393223 
0.38759777212 0.43408485542 0.44954359939 0.43146231244 0.38225241731 0.30887545418 0.22177937748 0.13331208184 0.055860884286 
0 0 0.013440549205 0.044285298732 0.088156696336 0.13873682521 0.18864168812 0.23050272201 0.25807037067 
0.26715799183 0.25627580052 0.22685641717 0.18303955429 0.13105536686 0.078315478865 0.032379630159 0 0 
0.0053039597696 0.01807227547 0.036242472827 0.057140969391 0.077714348997 0.094934228125 0.10623675363 0.10990495392 0.10532732086 
0.093091067548 0.074897444969 0.053318648802 0.031451554559 0.012572143182 0 0 0 0 
0 0 0 0 0 0 0 0 0 
0 0 0 0 
