# vtk DataFile Version 5.1
vtk output
ASCII
DATASET STRUCTURED_POINTS
DIMENSIONS 16 16 1
SPACING 1 1 1
ORIGIN 0 0 0
POINT_DATA 256
SCALARS scalars double
LOOKUP_TABLE default
0 0 0 0 0 0 0 0 0 
0 0 0 0 0 0 0 0 -0.0026368802882 
-0.0034791135799 -0.0027097394149 -0.00080322374108 0.0016260247111 0.0039489421629 0.0056297308176 0.006311656315 0.0058728789798 0.0044461652547 
0.002400376657 0.00028661923735 -0.0012430298235 -0.0015309481697 0 0 -0.0047676919572 -0.0038694570651 0.0017350762345 
0.010398767443 0.020122579859 0.028895533629 0.035013489449 0.037341823201 0.035488859329 0.029866926566 0.02163292268 0.012517079529 
0.0045639089367 -0.0001804027662 0 0 -0.0065990517543 -0.0019899618885 0.011609536923 0.030813751435 0.051627418734 
0.070067214011 0.082767692144 0.087489031243 0.083454630566 0.071469849965 0.053804733054 0.033857981282 0.015650791762 0.0032215379201 
0 0 -0.0081886473887 0.0012811353307 0.024663030441 0.056517752055 0.090519319932 0.12039313938 0.14084803688 
0.14836397674 0.14171778474 0.12216803752 0.093271368594 0.060357790202 0.029743487442 0.0077977436365 0 0 
-0.0095173250688 0.0050396333624 0.038375358018 0.08299271111 0.13024291839 0.17157408288 0.19978356886 0.21008127092 0.20080072371 
0.17364924298 0.13345886243 0.087476128188 0.044299284734 0.012625430646 0 0 -0.010531495305 0.0084363805893 
0.050285629757 0.10577195596 0.16428026699 0.21533396944 0.25011634093 0.2627652503 0.25124005239 0.2176266128 0.16783341733 
0.11072571536 0.05683166526 0.016821676788 0 0 -0.011171716688 0.010774643886 0.058333342645 0.12109171135 
0.18712269677 0.24466728839 0.28383421229 0.29804802705 0.28501925992 0.24708583991 0.1908729513 0.12632414606 0.065254502335 
0.01965246707 0 0 -0.011392049959 0.011599190538 0.061152980109 0.12644647998 0.19509518571 0.25489491343 
0.29558245346 0.31033597775 0.29678038102 0.257341174 0.19889206728 0.1317510452 0.068181325467 0.020632276856 0 
0 -0.011170855893 0.010758940535 0.058273705804 0.12096186924 0.18690750716 0.24436862674 0.28347151175 0.29765391718 
0.28463191377 0.24674030837 0.19059395312 0.12612246849 0.065128276004 0.019593033466 0 0 -0.010512348451 
0.0084323432352 0.050192627851 0.10552741397 0.16384801234 0.21471721298 0.2493583103 0.26193885749 0.25043030921 0.21691083094 
0.16726463373 0.1103242296 0.056587871108 0.016710169029 0 0 -0.0094375604138 0.0051130423498 0.038311566581 
0.08266964182 0.12959038785 0.17059600396 0.19855729615 0.20873758337 0.19949127183 0.17251017387 0.13257999383 0.086884440465 
0.04396332798 0.012482628042 0 0 -0.0079621435032 0.00156283542 0.024750526905 0.056186338867 0.089642600623 
0.11897638339 0.13902274317 0.14635134394 0.13977247703 0.12051586344 0.09205543461 0.059607350433 0.02937794491 0.007673998839 
0 0 -0.006054499247 -0.001250570863 0.012073027317 0.030600390821 0.050521241217 0.068080282022 0.080122178772 
0.084552789003 0.080647658519 0.069161464425 0.052222479577 0.033029386452 0.01539876296 0.0032349055758 0 0 
-0.0035553741132 -0.0022016359473 0.0029755109392 0.010519425298 0.018774881707 0.026116252548 0.031179903907 0.033061972462 0.03145090663 
0.026674784015 0.019656823127 0.011787422259 0.0047365634409 0.00024884418176 0 0 0 0 
0 0 0 0 0 0 0 0 0 
0 0 0 0 
