# vtk DataFile Version 5.1
vtk output
ASCII
DATASET STRUCTURED_POINTS
DIMENSIONS 16 16 1
SPACING 1 1 1
ORIGIN 0 0 0
POINT_DATA 256
SCALARS scalars double
LOOKUP_TABLE default
0 0 0 0 0 0 0 0 0 
0 0 0 0 0 0 0 0 -0.004481705524 
-0.0027595199582 0.00080988498847 0.0053736923557 0.010085393564 0.01415934354 0.016952848318 0.018045157331 0.017292982964 0.014850428857 
0.011149318526 0.0068442128203 0.0027350053127 -0.00030979260081 0 0 -0.0027996035639 0.011364566496 0.033540215194 
0.060058656678 0.08673634318 0.10945012009 0.12472950426 0.13026589286 0.12525512527 0.11051813643 0.088380370453 0.062329213196 
0.036504573276 0.015105628126 0 0 0.00070156455302 0.033459355427 0.083084402801 0.14184566939 0.20071764662 
0.25071771506 0.28425024655 0.29624959798 0.28494515275 0.25213018389 0.20289294035 0.14485118988 0.087007776466 0.038402429614 
0 0 0.0051792875448 0.059870864908 0.14173051675 0.23828656008 0.33486257949 0.41680079537 0.47168539839 
0.49122797649 0.4725276949 0.41851396711 0.33750398162 0.24194236465 0.14651467184 0.065920976874 0 0 
0.0098013215254 0.086434938583 0.200476694 0.33473226075 0.46889928903 0.58266984331 0.65882855377 0.68587763741 0.6597905879 
0.58462820464 0.47192336653 0.3389280133 0.20598848313 0.093447171629 0 0 0.013797055499 0.10904855416 
0.25036431028 0.41655205141 0.58254932335 0.72326815542 0.81743273599 0.85083006614 0.81848127394 0.72540442707 0.58585326208 
0.42114755345 0.25642449609 0.11680382937 0 0 0.016536802713 0.12425853398 0.28381814904 0.47135286015 
0.6586217933 0.81734562872 0.92353771041 0.96117229843 0.92463471131 0.81958217979 0.66208513595 0.47617955806 0.29020202453 
0.13246351093 0 0 0.017608569974 0.12976787995 0.2957861676 0.49086130867 0.68563497749 0.85070602139 
0.96113488181 1.0002586032 0.96223900378 0.85295801958 0.68912476381 0.49573017626 0.30223581368 0.13807509943 0 
0 0.016872145021 0.12477647196 0.28450242352 0.47218164757 0.65956771421 0.8183759577 0.9246151348 0.96225636476 
0.92568383715 0.82055591373 0.66294627773 0.47689582081 0.29074710723 0.13281768561 0 0 0.014478551184 
0.11010109951 0.25175521941 0.4182376466 0.58447461064 0.72536689814 0.81962883457 0.85304057379 0.82062073852 0.72738979921 
0.58760845438 0.42260689727 0.25753478294 0.11752521695 0 0 0.010850931466 0.08805558908 0.20261897634 
0.33733092335 0.47187159977 0.58591462117 0.66222784191 0.68930159935 0.66310494018 0.58770268939 0.47463950392 0.34118466731 
0.20770459337 0.094562223978 0 0 0.0066311125529 0.062110227657 0.14469098662 0.24188288258 0.33898517841 
0.42131179403 0.47642000731 0.49600195839 0.47714938584 0.42279807423 0.34128399662 0.2450788872 0.14889826178 0.067470400073 
0 0 0.0026046180798 0.036385428279 0.086950351343 0.14655164383 0.20613110712 0.25666260075 0.29050736995 
0.30256820172 0.29106229926 0.25779303925 0.20787855496 0.14897896243 0.090141564795 0.04044275386 0 0 
-0.00037288094155 0.01506241548 0.038413976137 0.06600975185 0.093619978186 0.11705153455 0.13276343932 0.13839556957 0.13312394068 
0.11778582914 0.094754981202 0.067586726428 0.04048984484 0.017711887858 0 0 0 0 
0 0 0 0 0 0 0 0 0 
0 0 0 0 
