# vtk DataFile Version 5.1
vtk output
ASCII
DATASET STRUCTURED_POINTS
DIMENSIONS 16 16 1
SPACING 1 1 1
ORIGIN 0 0 0
POINT_DATA 256
SCALARS scalars double
LOOKUP_TABLE default
0 0 0 0 0 0 0 0 0 
0 0 0 0 0 0 0 0 -0.0048134989775 
-0.0032190008425 0.00027069298371 0.0047952044358 0.0094969183928 0.013578371239 0.016386676333 0.01749429467 0.01675566669 0.014327487831 
0.010648566623 0.0063835554134 0.0023434744008 -0.00059384162016 0 0 -0.0033657440672 0.010588486071 0.032634830251 
0.059089984959 0.085751530499 0.1084770307 0.12377965197 0.12933999938 0.12435035591 0.10963587903 0.087533340624 0.061546699274 
0.035834752055 0.014614023119 0 0 -0.00012689663301 0.032336655292 0.081784491337 0.14046171409 0.19931482532 
0.24933362094 0.28289946242 0.29493165788 0.28365471182 0.2508679337 0.20167569273 0.14371962613 0.086030593688 0.03767594371 
0 0 0.0040802528914 0.058395953403 0.14003465004 0.23649014143 0.33304813117 0.41501455445 0.4699437492 
0.48952793636 0.47086009513 0.41687757945 0.33591869631 0.24045965148 0.1452239265 0.064950905224 0 0 
0.0084506342749 0.084635688328 0.19841946342 0.33256245145 0.46671483225 0.58052412212 0.65673868247 0.68383734971 0.65778624051 
0.58265590892 0.47000508924 0.33712466421 0.20440850958 0.092249943153 0 0 0.012242428736 0.10698832041 
0.24801828239 0.41408577277 0.58007282834 0.72084008778 0.81507020137 0.84852351396 0.81621281994 0.72316745081 0.5836709198 
0.41908806593 0.25461168125 0.11542228255 0 0 0.01485103881 0.12203162702 0.28128896705 0.46869987812 
0.65596261702 0.81474195001 0.92100622207 0.95870089765 0.92220234728 0.81718007065 0.65973687222 0.4739578562 0.28824057334 
0.13096339522 0 0 0.015881526319 0.12748967857 0.29320198306 0.48815370716 0.68292375326 0.84805347778 
0.95855713517 0.99774225128 0.95976150029 0.85050944789 0.68672849191 0.49346012839 0.30022879555 0.13653768844 0 
0 0.015199871708 0.12257003249 0.28199960256 0.46955965038 0.65694281599 0.81580854943 0.92212068369 0.95982162151 
0.92328665975 0.81818645238 0.66062705887 0.47469851127 0.28880441014 0.13132984829 0 0 0.012951474738 
0.10808258336 0.24946278688 0.41583419111 0.58206743263 0.7230120144 0.81734091726 0.8508078255 0.8184231467 0.72521864802 
0.5854847807 0.42059679012 0.25576001858 0.11616862715 0 0 0.009543100197 0.086321009278 0.20064445207 
0.33525757861 0.4697930725 0.58388029422 0.66025123723 0.68737321504 0.66120809635 0.58583047257 0.47281073244 0.33945696758 
0.20618315448 0.093403516232 0 0 0.0055924083645 0.060725873726 0.14311010185 0.24021952373 0.33731575652 
0.41967711455 0.47483181523 0.49445326686 0.4756273306 0.42129766735 0.33982101644 0.24370025624 0.14768860616 0.066553980154 
0 0 0.0018575215263 0.035383913507 0.08580264411 0.14534176993 0.20491593432 0.25547281764 0.28935210655 
0.30144262462 0.28995715966 0.25670489683 0.2068192977 0.14798330717 0.089271430703 0.039787687913 0 0 
-0.00083075193594 0.014445718823 0.037705536551 0.065262540135 0.092870130702 0.11631857433 0.13205306885 0.13770449289 0.13244599255 
0.11711854368 0.094105666025 0.066977130427 0.039958593266 0.017313970264 0 0 0 0 
0 0 0 0 0 0 0 0 0 
0 0 0 0 
