# vtk DataFile Version 5.1
vtk output
ASCII
DATASET STRUCTURED_POINTS
DIMENSIONS 16 16 1
SPACING 1 1 1
ORIGIN 0 0 0
POINT_DATA 256
SCALARS scalars double
LOOKUP_TABLE default
0 0 0 0 0 0 0 0 0 
0 0 0 0 0 0 0 0 -0.0044725532431 
-0.0027463029322 0.00082613954375 0.0053920256145 0.010104986397 0.014179541646 0.01697314833 0.018065162773 0.017312340926 0.014868760045 
0.011166154355 0.0068589532896 0.0027469108616 -0.00030156287141 0 0 -0.0027845778754 0.01138603669 0.033566396304 
0.060087986301 0.086767521838 0.10948213792 0.12476160968 0.13029751448 0.12528576337 0.11054724347 0.08840724201 0.062352910204 
0.036523894076 0.015119145848 0 0 0.00072272432868 0.033489221598 0.083120470661 0.14188575473 0.20075998578 
0.25076098426 0.28429350527 0.29629216936 0.28498646187 0.25216958057 0.20292953534 0.14488373214 0.087034594577 0.038421454047 
0 0 0.0052064478418 0.059908778922 0.14177589121 0.23833660426 0.33491510255 0.41685421114 0.47173863814 
0.49128032315 0.47257856406 0.41856266774 0.3375494928 0.24198316215 0.1465486313 0.065945369516 0 0 
0.0098338393423 0.086479927751 0.20053013 0.33479080964 0.46896039566 0.58273171806 0.65889005357 0.68593805464 0.65984937587 
0.5846846786 0.4719764226 0.33897590485 0.20602868399 0.093476340609 0 0 0.013833764015 0.10909900676 
0.25042389095 0.41661699847 0.58261680694 0.72333624691 0.81750026126 0.85089635593 0.81854584279 0.72546662425 0.58591194203 
0.42120080939 0.25646948821 0.11683672073 0 0 0.016576087762 0.1243122944 0.28388138969 0.47142155312 
0.65869294654 0.8174172429 0.92360861277 0.96124186706 0.92470252279 0.81964762663 0.66214706444 0.4762359729 0.29024989293 
0.13249867828 0 0 0.01764851997 0.12982243254 0.29585021038 0.49093074011 0.68570677131 0.85077817774 
0.9612062535 1.00032861 0.96230726874 0.853023974 0.68918727336 0.49578723473 0.30228433787 0.13811083686 0 
0 0.016910748418 0.12482918224 0.2845642905 0.47224869981 0.65963702416 0.81844559524 0.92468399856 0.96232390434 
0.92574969926 0.82061955825 0.66300661423 0.47695091137 0.29079396837 0.13285220146 0 0 0.014513909375 
0.11014947372 0.25181208427 0.41829935359 0.58453845798 0.72543109376 0.81969234426 0.85310286793 0.82068146836 0.72744844563 
0.58766399592 0.42265754044 0.25757778609 0.11755682088 0 0 0.010881452741 0.088097510355 0.20266841175 
0.33738470961 0.47192737213 0.58597079014 0.66228346718 0.68935617413 0.66315811392 0.5877539667 0.47468796099 0.34122872406 
0.20774187021 0.094589497584 0 0 0.0066556547135 0.062144129556 0.14473114725 0.24192674231 0.33903079783 
0.42135784535 0.47646567863 0.49604678387 0.47719302538 0.42284007393 0.34132356429 0.24511471493 0.14892842084 0.067492323343 
0 0 0.0026225527045 0.036410373125 0.086980060324 0.14658423104 0.20616512101 0.25669702703 0.29054156676 
0.30260177837 0.29109495715 0.25782439878 0.20790799423 0.14900549253 0.090163762118 0.040458763969 0 0 
-0.00036170391168 0.015078054011 0.038432694015 0.066030364758 0.093641560114 0.11707342695 0.13278521409 0.1384169549 0.13314472256 
0.117805744 0.094773616667 0.067603446672 0.040503755347 0.017721851648 0 0 0 0 
0 0 0 0 0 0 0 0 0 
0 0 0 0 
