# vtk DataFile Version 5.1
vtk output
ASCII
DATASET STRUCTURED_POINTS
DIMENSIONS 16 16 1
SPACING 1 1 1
ORIGIN 0 0 0
POINT_DATA 256
SCALARS scalars double
LOOKUP_TABLE default
0 0 0 0 0 0 0 0 0 
0 0 0 0 0 0 0 0 -0.0047977342353 
-0.0031972772802 0.0002960258471 0.0048221860171 0.0095241543225 0.013605066897 0.016412552561 0.017519414188 0.016780204833 0.014351486034 
0.010671709705 0.0064050136607 0.0023618500718 -0.00058042416995 0 0 -0.0033386007603 0.010625664391 0.03267816982 
0.059136322598 0.08579861687 0.10852354667 0.12382506429 0.12938429094 0.12439367628 0.10967816946 0.087573991659 0.061584297795 
0.0358669695 0.014637690964 0 0 -8.6864987006e-05 0.032391037426 0.081847676788 0.14052927776 0.19938364662 
0.2494018567 0.28296632938 0.29499706136 0.28371877477 0.25093049237 0.20173583064 0.14377531477 0.086078498265 0.037711438747 
0 0 0.0041336852987 0.058468014926 0.14011806308 0.23657922132 0.33313891318 0.41510470434 0.47003226372 
0.48961466847 0.47094516287 0.41696073427 0.33599873287 0.24053393546 0.14528810141 0.064998815928 0 0 
0.0085166009263 0.084724159261 0.1985215377 0.3326712907 0.46682571717 0.58063429402 0.65684696272 0.68394356789 0.65789053294 
0.58275797039 0.4701034675 0.33721617948 0.20448786026 0.092309526474 0 0 0.012318599283 0.1070900782 
0.24813539764 0.41421047798 0.58019980814 0.72096625854 0.81519426177 0.84864529314 0.81633248652 0.72328467 0.58378405365 
0.41919350259 0.25470335341 0.11549139607 0 0 0.014933805558 0.12214193124 0.28141571289 0.468834701 
0.65609982591 0.81487826391 0.92114027412 0.95883253053 0.92233176376 0.81730692909 0.65985942505 0.47407221919 0.28834018499 
0.13103868171 0 0 0.015966411876 0.12760268597 0.29333172929 0.48829163742 0.68306406442 0.84819283823 
0.95869417197 0.99787682717 0.95989384441 0.85063923032 0.68685394109 0.4935772793 0.30033092757 0.13661496657 0 
0 0.015282081174 0.12267949564 0.28212527125 0.46969321487 0.65707864119 0.81594340722 0.92225325521 0.9599517929 
0.92341467448 0.81831200888 0.66074845058 0.47481189582 0.28890326663 0.13140463829 0 0 0.013026496764 
0.10818261143 0.24957769317 0.41595632381 0.58219159241 0.7231352252 0.81746197342 0.8509266413 0.81853996995 0.72533322258 
0.58559555069 0.42070022949 0.25585014517 0.1162367224 0 0 0.0096072539846 0.086406760164 0.20074307028 
0.33536241562 0.46989959401 0.5839859072 0.66035490496 0.68747488933 0.66130802576 0.58592846518 0.47290545874 0.33954538195 
0.20626009389 0.093461504877 0 0 0.0056432393512 0.06079405413 0.14318862242 0.24030298733 0.33740046682 
0.4197609655 0.47491398757 0.49453376326 0.47570640319 0.42137520711 0.3398959795 0.24377019771 0.14774937756 0.066599626348 
0 0 0.0018939648631 0.035432985692 0.085859213923 0.14540183578 0.20497674849 0.25553283163 0.28941075318 
0.30149996768 0.29001345703 0.25676013383 0.20687275209 0.14803320449 0.089314740149 0.039820097418 0 0 
-0.00080850188942 0.014475743174 0.037740114804 0.065299126784 0.092906981269 0.11635473112 0.13208822581 0.13773876598 0.13247962939 
0.11715161306 0.094137770734 0.067007185881 0.039984711357 0.017333483403 0 0 0 0 
0 0 0 0 0 0 0 0 0 
0 0 0 0 
