# vtk DataFile Version 5.1
vtk output
ASCII
DATASET STRUCTURED_POINTS
DIMENSIONS 16 16 1
SPACING 1 1 1
ORIGIN 0 0 0
POINT_DATA 256
SCALARS scalars double
LOOKUP_TABLE default
0 0 0 0 0 0 0 0 0 
0 0 0 0 0 0 0 0 -0.0048397524716 
-0.0032551911632 0.00022847394187 0.0047502199864 0.0094514916035 0.013533828804 0.016343488477 0.017452363542 0.016714707336 0.014287437828 
0.010609956145 0.006347769507 0.0023128415709 -0.0006161998784 0 0 -0.0034109661275 0.010526485254 0.032562474535 
0.059012528512 0.085672721108 0.10839908229 0.12370348247 0.1292656757 0.12427767043 0.10956496802 0.087465248889 0.061483797152 
0.035780919106 0.014574522103 0 0 -0.00019361048084 0.032245897673 0.0816788675 0.14034856221 0.1991993453 
0.24921891932 0.28278690949 0.29482149637 0.28354682886 0.25076268708 0.20157467452 0.14362625153 0.085950419205 0.037616641065 
0 0 0.0039911894235 0.05827562934 0.13989508593 0.23634075255 0.33289552446 0.41486267763 0.46979438093 
0.48938146121 0.4707164674 0.41673735275 0.33578398589 0.24033490482 0.14511640297 0.064870803553 0 0 
0.0083406646116 0.084487913551 0.19824856888 0.33237975321 0.46652819516 0.58033822398 0.65655563592 0.68365763269 0.65760983564 
0.58248351863 0.46983928193 0.33697081897 0.20427546111 0.092150280665 0 0 0.012115438788 0.10681831414 
0.24782212543 0.41387631113 0.57985892062 0.72062697255 0.81486023108 0.84831721331 0.81601016757 0.72296924446 0.58348007261 
0.41891069628 0.25445790012 0.11530664599 0 0 0.014713045645 0.12184731826 0.28107662881 0.46847333916 
0.65573136225 0.81451155982 0.92077918174 0.95847774012 0.92198302755 0.81696542868 0.6595300274 0.47376539362 0.28807342781 
0.13083740969 0 0 0.015739997963 0.12730084324 0.29298459742 0.4879219127 0.68268722186 0.84781787876 
0.95832497226 0.99751403481 0.95953715312 0.85028980125 0.6865167135 0.49326294253 0.30005740233 0.13640836169 0 
0 0.015062805865 0.12238712323 0.28178905655 0.4693352051 0.65671386323 0.81558058159 0.92189610621 0.95960089507 
0.92306967173 0.81797397606 0.66042214548 0.4745076763 0.28863852083 0.13120468869 0 0 0.012826395984 
0.10791545531 0.24927030539 0.4156290096 0.58185821652 0.72280382328 0.81713594448 0.85060645421 0.81822522392 0.72502484077 
0.58529786565 0.42042274293 0.25560880857 0.11605468456 0 0 0.0094361473419 0.086177760775 0.20047930823 
0.33508153939 0.46961369479 0.58370198016 0.66007586346 0.6872010563 0.66103894883 0.58566485041 0.47265099995 0.33930828072 
0.20605411735 0.093306506688 0 0 0.0055076741905 0.060612008334 0.14297867887 0.24007947961 0.33717325137 
0.41953571638 0.47469299677 0.49431716395 0.47549367483 0.4211667806 0.33969474552 0.24358273351 0.14758674481 0.066477645935 
0 0 0.0017967797886 0.035301992915 0.085708029382 0.14524109387 0.204813776 0.25537179329 0.28925322722 
0.30134587 0.28986219305 0.25661182862 0.2067293972 0.14789956694 0.089198901193 0.039733518964 0 0 
-0.00086782930196 0.014395624969 0.037647761644 0.065201309409 0.092808351201 0.11625785852 0.13199395718 0.13764683192 0.13238941268 
0.11706296995 0.094051790784 0.066926777408 0.039914908648 0.017281382442 0 0 0 0 
0 0 0 0 0 0 0 0 0 
0 0 0 0 
