# vtk DataFile Version 5.1
vtk output
ASCII
DATASET STRUCTURED_POINTS
DIMENSIONS 16 16 1
SPACING 1 1 1
ORIGIN 0 0 0
POINT_DATA 256
SCALARS scalars double
LOOKUP_TABLE default
0 0 0 0 0 0 0 0 0 
0 0 0 0 0 0 0 0 -0.004623353556 
-0.0029573215346 0.00057546390258 0.0051193869131 0.0098237229984 0.013898295871 0.016696479025 0.017794885317 0.017049323868 0.01461486623 
0.010925992369 0.0066411056886 0.0025643194335 -0.00043236365528 0 0 -0.0030389989213 0.011034350536 0.033152338669 
0.059640612356 0.086308204161 0.10902432131 0.12431196703 0.12985821075 0.12485743052 0.11013218928 0.088012379945 0.061991911224 
0.0362181138 0.01489694609 0 0 0.00035433797291 0.0329867332 0.08253479907 0.14125800165 0.20011955013 
0.25012562034 0.28367118217 0.29568440132 0.28439260227 0.25159144573 0.20237567412 0.14437269025 0.086596628052 0.038098294532 
0 0 0.0047219860534 0.059255404015 0.14102121412 0.23753378423 0.33410117341 0.41605059891 0.47095382617 
0.4905143231 0.47182859145 0.41782924474 0.33684213551 0.24132486593 0.14597853464 0.065519225107 0 0 
0.0092424135312 0.085689196336 0.19962340018 0.33383227612 0.46799380894 0.58178142162 0.65796445538 0.68503519417 0.65896390981 
0.58381538369 0.47113323549 0.33818559804 0.20533850385 0.09295527782 0 0 0.013156315032 0.10819880589 
0.24939709437 0.41553666381 0.58153191147 0.72227319746 0.81646705537 0.84988906383 0.81755667684 0.72449259845 0.58496303476 
0.42030664063 0.25568379906 0.11623936469 0 0 0.015843830033 0.12334298888 0.28277955015 0.47026589998 
0.65753568615 0.81628591062 0.92251070185 0.96017191999 0.92365091726 0.81860999879 0.66113321544 0.47527721545 0.28940410251 
0.13185278543 0 0 0.016899626893 0.12883284403 0.29472717961 0.48975474193 0.68453089316 0.84963009527 
0.96009303269 0.99924401572 0.96124080164 0.85197055995 0.68815643094 0.49481066061 0.30142116804 0.13745032867 0 
0 0.016185890991 0.12387117069 0.28347708735 0.47111036332 0.65849904424 0.81733478022 0.92360713008 0.96127483827 
0.9247181502 0.81960051776 0.66200925712 0.47600595343 0.28995874379 0.13221319418 0 0 0.013851409832 
0.10927205088 0.25081474675 0.41725379594 0.58349220262 0.7244090917 0.81870118621 0.85213727915 0.81973236644 0.72651158092 
0.58674810598 0.42179104557 0.25681332224 0.11697331698 0 0 0.010312871968 0.087341485275 0.20180639975 
0.33647875296 0.47101897921 0.58508211724 0.66142085796 0.68851572844 0.66233263264 0.5869404012 0.47389441946 0.34048016241 
0.20708381215 0.094089454939 0 0 0.0062025871834 0.061538229677 0.14403726892 0.24119494056 0.33829499285 
0.42063654457 0.47576471445 0.4953637493 0.47652284633 0.42218098941 0.34068272388 0.24451265492 0.14840183609 0.067094778644 
0 0 0.0022952741415 0.035969620717 0.086472705954 0.14604704601 0.20562339032 0.25616486761 0.29002383637 
0.30209729048 0.29060055674 0.25733933927 0.20743800985 0.14856599007 0.089781650944 0.040172576167 0 0 
-0.00056323623693 0.014804952881 0.038116879955 0.065694909785 0.093302549988 0.11673999901 0.13246069004 0.13810084271 0.13283528053 
0.11750273608 0.094480859159 0.067330756643 0.040267950863 0.017546508621 0 0 0 0 
0 0 0 0 0 0 0 0 0 
0 0 0 0 
