# vtk DataFile Version 5.1
vtk output
ASCII
DATASET STRUCTURED_POINTS
DIMENSIONS 16 16 1
SPACING 1 1 1
ORIGIN 0 0 0
POINT_DATA 256
SCALARS scalars double
LOOKUP_TABLE default
0 0 0 0 0 0 0 0 0 
0 0 0 0 0 0 0 0 -0.0047451145913 
-0.0031248114139 0.00038048095093 0.0049120809169 0.009614838072 0.013693898083 0.016498616477 0.017602941295 0.016861802876 0.014431314395 
0.010748733332 0.0064764737632 0.0024230839064 -0.00053568369422 0 0 -0.0032480655604 0.010749476872 0.032822241637 
0.059290051819 0.085954501829 0.10867723973 0.12397488246 0.12953030157 0.12453651266 0.1098177599 0.0877083987 0.061708859926 
0.035973920159 0.014716409441 0 0 4.6595590809e-05 0.032571924944 0.082057280506 0.14075272693 0.19961053534 
0.24962615316 0.28318563276 0.29521133161 0.28392872001 0.25113584197 0.20193373923 0.14395913176 0.086237102684 0.037829290638 
0 0 0.004311766758 0.058707507063 0.14039435373 0.23687316891 0.33343729859 0.41539993237 0.47032133599 
0.48989754742 0.47122273196 0.41723261727 0.33626125692 0.24077850393 0.14550018778 0.06515770861 0 0 
0.0087364121634 0.085018019505 0.19885929115 0.33302987855 0.46718940589 0.58099414715 0.65719953263 0.68428891569 0.6582297942 
0.58309075654 0.47042541778 0.33751695241 0.2047497793 0.092506982222 0 0 0.012572378791 0.10742794637 
0.24852265723 0.41462091269 0.58061569844 0.72137764727 0.81559740696 0.84904040411 0.81672096832 0.72366618496 0.58415373658 
0.41953963387 0.25500570462 0.11572032539 0 0 0.015209541352 0.12250809766 0.28183465113 0.46927816426 
0.6565488432 0.81532226199 0.9215753692 0.95925907705 0.9227513888 0.81771937206 0.66025953192 0.47444740408 0.28866857252 
0.13128799041 0 0 0.016249197774 0.12797779373 0.29376051679 0.4887452098 0.68352307741 0.8486465647 
0.95913873498 0.9983126834 0.9603227469 0.85106099292 0.68726335683 0.49396150771 0.30066756317 0.13687084311 0 
0 0.015555954256 0.12304285061 0.2825406086 0.47013247094 0.65752303189 0.81638253608 0.922683399 0.96037345154 
0.92382961127 0.81872009746 0.66114467415 0.47518380851 0.28922912879 0.13165228672 0 0 0.013276437518 
0.10851469791 0.24995756854 0.41635815805 0.58259805368 0.72353671591 0.8178550716 0.8513118413 0.81891894201 0.72570589247 
0.58595732786 0.42103968132 0.25614732788 0.11646224669 0 0 0.0098210064623 0.086691529097 0.20106927123 
0.33570762364 0.47024869353 0.58433051552 0.6606920492 0.68780504 0.66163269443 0.58624764279 0.47321519545 0.33983578496 
0.2065139498 0.093653628435 0 0 0.0058126275466 0.06102057554 0.14344856046 0.24057816026 0.33767855193 
0.42003513029 0.47518184933 0.49479578615 0.47596392042 0.42162831009 0.34014153609 0.24400024479 0.14795008363 0.066750947731 
0 0 0.0020154358961 0.035596129615 0.086046707916 0.14560022249 0.20517686699 0.25572963495 0.28960256397 
0.30168727765 0.2901974278 0.25694099524 0.20704830935 0.14819765656 0.089457981422 0.039927634199 0 0 
-0.0007343137496 0.014575654036 0.037854910031 0.065420265134 0.093028646292 0.11647378318 0.1322037433 0.1378512644 0.13259007383 
0.11726036173 0.09424359767 0.067106527979 0.040071272657 0.017398314767 0 0 0 0 
0 0 0 0 0 0 0 0 0 
0 0 0 0 
