# vtk DataFile Version 5.1
vtk output
ASCII
DATASET STRUCTURED_POINTS
DIMENSIONS 16 16 1
SPACING 1 1 1
ORIGIN 0 0 0
POINT_DATA 256
SCALARS scalars double
LOOKUP_TABLE default
0 0 0 0 0 0 0 0 0 
0 0 0 0 0 0 0 0 -0.0043757873861 
-0.002603396617 0.0010058762427 0.0055991453192 0.010330557151 0.014415491715 0.017212335003 0.018301216599 0.017539354707 0.015080908329 
0.011357339594 0.0070225777016 0.002875870202 -0.00021457711285 0 0 -0.0026290112062 0.011614066513 0.033851399486 
0.060414752017 0.087121994363 0.10985185952 0.12513575318 0.13066656738 0.12564096519 0.11087991002 0.088708127299 0.062611756307 
0.036729304145 0.015258891027 0 0 0.00093679647957 0.033800019027 0.083506015821 0.14232512185 0.20123431799 
0.25125396645 0.28479129556 0.29678285772 0.28545918879 0.25261349761 0.20333281317 0.14523281689 0.087313883063 0.03861351174 
0 0 0.00547535423 0.060295631877 0.1422522793 0.23887622291 0.3354948236 0.41745452299 0.47234342508 
0.49187605321 0.47315304652 0.41910360851 0.33804310619 0.24241308684 0.14689534983 0.066186253683 0 0 
0.010149880202 0.086931066855 0.20108213283 0.3354127066 0.46962554321 0.58341816567 0.65958014771 0.68661734638 0.66050501753 
0.58530357872 0.47254346498 0.33947252034 0.20643199673 0.093759003484 0 0 0.01418527941 0.10959776033 
0.25103104043 0.41729801778 0.58334250927 0.72408306621 0.81824969139 0.85163361108 0.81925794306 0.72614020847 0.58653115074 
0.42174555865 0.25691437264 0.11715065193 0 0 0.016948159099 0.12483800667 0.28451903416 0.47213449339 
0.65945059921 0.8181952865 0.9243883043 0.96200852725 0.92544340614 0.82034949914 0.66279385589 0.47680684465 0.29071796968 
0.13283054458 0 0 0.018024172127 0.13035198126 0.29649117292 0.49164603685 0.68646567502 0.85155648064 
0.9619855254 1.0010946084 0.96304772133 0.8537260629 0.68983519652 0.49636019137 0.30275519016 0.13844554658 0 
0 0.017272464279 0.12533886451 0.28518089164 0.47293643062 0.66036628788 0.81919314972 0.92543222906 0.96305926979 
0.92646056803 0.82129375508 0.66362904376 0.47750159758 0.29124675776 0.13317423143 0 0 0.014845229247 
0.11061698339 0.25237824456 0.4189313014 0.58520893477 0.72611863416 0.82038063071 0.85377931734 0.82133525402 0.72806825366 
0.58823585525 0.42316304334 0.25799293538 0.11785161116 0 0 0.011168418487 0.088503716343 0.20316153785 
0.33793620997 0.47251338956 0.58657238597 0.66288610587 0.68994853116 0.66373038968 0.58829596995 0.47518726015 0.3416691478 
0.2081025738 0.094844709428 0 0 0.0068878746812 0.062474384638 0.14513352846 0.2423780664 0.33951147131 
0.42185212707 0.47696131508 0.4965340852 0.47766353714 0.4232850622 0.34173256013 0.24547435298 0.1492217606 0.067698769549 
0 0 0.0027937021619 0.036655130727 0.087279558366 0.14692131372 0.20652509366 0.25706792041 0.29091391544 
0.30296797553 0.29144830701 0.25815803143 0.20821382851 0.14927342711 0.090381246365 0.040610853928 0 0 
-0.00025409619118 0.015232630708 0.038622587678 0.066244770033 0.093871091841 0.11731034422 0.13302331301 0.13865118358 0.13337060184 
0.11801870165 0.094968355797 0.067773468745 0.04064114706 0.017817421493 0 0 0 0 
0 0 0 0 0 0 0 0 0 
0 0 0 0 
