# vtk DataFile Version 5.1
vtk output
ASCII
DATASET STRUCTURED_POINTS
DIMENSIONS 16 16 1
SPACING 1 1 1
ORIGIN 0 0 0
POINT_DATA 256
SCALARS scalars double
LOOKUP_TABLE default
0 0 0 0 0 0 0 0 0 
0 0 0 0 0 0 0 0 -0.0049078881707 
-0.0033491947887 0.00011871790967 0.0046331707703 0.0093331840143 0.013417725946 0.016230842092 0.017342958501 0.016607845492 0.014182995899 
0.010509341197 0.0062545955475 0.002233156444 -0.00067430718333 0 0 -0.0035284448581 0.010365067117 0.032373629129 
0.0588098124 0.085465872051 0.10819394639 0.12350261739 0.12906948049 0.12408584904 0.10937809933 0.087286219605 0.061318858798 
0.035640150412 0.014471500068 0 0 -0.00036703290937 0.032009222394 0.081402404373 0.14005117388 0.19889454504 
0.24891498685 0.28248778707 0.29452831256 0.28325982877 0.25048329777 0.20130741373 0.14338019972 0.08574001457 0.037461610886 
0 0 0.0037595709042 0.057961492522 0.13952904742 0.23594694533 0.33249112122 0.41445827779 0.46939523294 
0.48898938149 0.47033222101 0.4163631948 0.33542603843 0.24000506429 0.1448335353 0.064661075041 0 0 
0.0080545984489 0.084101810912 0.19779973618 0.33189713655 0.46603223938 0.57984155931 0.65606462292 0.68317464875 0.65713606377 
0.58202191887 0.46939739796 0.33656310145 0.20392487245 0.091889072012 0 0 0.011785039941 0.10637390309 
0.24730647562 0.41332223775 0.57928945384 0.72005631308 0.81429556954 0.8477613181 0.81546450283 0.72243728743 0.58297046949 
0.41843993173 0.25405225572 0.11500337643 0 0 0.014353983099 0.12136537951 0.28051814604 0.46787361029 
0.65511504715 0.81389382314 0.92016769761 0.95787547841 0.92139158578 0.81638857377 0.65897707971 0.47325412621 0.2876322648 
0.13050687831 0 0 0.015371721678 0.12680701128 0.29241271836 0.48730807229 0.68205656678 0.84718583155 
0.95769930385 0.99689771982 0.95893177419 0.84969916615 0.6859503169 0.492738946 0.29960492014 0.13606901582 0 
0 0.014706145821 0.12190881002 0.28123521624 0.46874089885 0.65610350951 0.81496911711 0.92129099844 0.959004927 
0.92248426607 0.81740272747 0.65987419795 0.4740006227 0.2882006103 0.13087629583 0 0 0.012500948881 
0.10747850087 0.24876417653 0.41508602193 0.5813008994 0.72224591371 0.81658422134 0.85006331993 0.81769180255 0.72450427165 
0.5847984421 0.41996058018 0.25520982119 0.11575580122 0 0 0.0091578981155 0.085803385213 0.20004537301 
0.33461617049 0.46913653854 0.58322495259 0.65960471452 0.68673763826 0.66058396317 0.58522077088 0.47222484251 0.3389139184 
0.20571391508 0.093052167664 0 0 0.0052872747449 0.060314606998 0.14263373214 0.23970987789 0.33679500845 
0.41915844795 0.47432115993 0.49395193289 0.47513524021 0.42081679957 0.33935864627 0.24327159664 0.14731853896 0.066277673847 
0 0 0.00163883608 0.035088219161 0.085460091661 0.14497602373 0.20454347608 0.25510327296 0.28898950015 
0.30108738683 0.28960862327 0.25636396215 0.20649091801 0.14767846112 0.089008294781 0.039591785049 0 0 
-0.00096419430191 0.01426507008 0.03749670211 0.065040629623 0.092645606984 0.11609733763 0.13183724278 0.13749375812 0.1322392707 
0.11691579765 0.093909565462 0.066794335054 0.039800425355 0.017196268958 0 0 0 0 
0 0 0 0 0 0 0 0 0 
0 0 0 0 
