# vtk DataFile Version 5.1
vtk output
ASCII
DATASET STRUCTURED_POINTS
DIMENSIONS 16 16 1
SPACING 1 1 1
ORIGIN 0 0 0
POINT_DATA 256
SCALARS scalars double
LOOKUP_TABLE default
0 0 0 0 0 0 0 0 0 
0 0 0 0 0 0 0 0 -0.0048764631614 
-0.0033058249814 0.00016937201134 0.0046872094826 0.0093878229749 0.013471364341 0.016282896954 0.01739352206 0.016657232287 0.014231255818 
0.010555819684 0.0062976222876 0.0022699412589 -0.00064749282947 0 0 -0.0034742417781 0.010439606355 0.032460917659 
0.058903612085 0.085561689719 0.1082890677 0.12359583118 0.12916056218 0.12417489149 0.10946479504 0.087369205687 0.061395234033 
0.035705264553 0.014519105893 0 0 -0.00028699808706 0.032118583422 0.081530332846 0.14018900287 0.19903603884 
0.24905628768 0.28262700728 0.29466484199 0.28339345759 0.25061327815 0.20143159265 0.14349435015 0.085837474307 0.037533314414 
0 0 0.0038664809766 0.058106710566 0.13969855707 0.23612967055 0.33267913714 0.4146466322 0.46958139147 
0.48917235923 0.47051150618 0.41653760014 0.33559262666 0.24015828499 0.14496468268 0.064758135286 0 0 
0.0081866545209 0.084280350418 0.198007698 0.33212124637 0.46626306184 0.58007318108 0.6562939526 0.68340038541 0.65735744093 
0.58223736684 0.46960327962 0.33675266383 0.20408751896 0.092010003863 0 0 0.011937571507 0.10657944497 
0.24754547966 0.41357966344 0.5795546723 0.72032266598 0.81455954529 0.84802138693 0.81571971619 0.72268578859 0.58320807547 
0.41865893069 0.25424051902 0.11514381574 0 0 0.014519753932 0.12158830303 0.28077705575 0.46815233281 
0.65540220121 0.81418229199 0.92045372174 0.95815740273 0.92166836521 0.81665818558 0.65923500501 0.47349204509 0.28783705964 
0.13065996357 0 0 0.015541748975 0.12703544622 0.29267785995 0.48759338808 0.68235045067 0.847481043 
0.95799202989 0.99718629178 0.95921514152 0.84997527587 0.68621456093 0.49298282035 0.29981498858 0.13622619214 0 
0 0.014870809336 0.12213006257 0.28149198638 0.46901712238 0.65638791643 0.81525469574 0.92157408448 0.95928395143 
0.92275826431 0.81766975611 0.66012981936 0.47423659996 0.28840390645 0.13102839567 0 0 0.012651198136 
0.10768060603 0.2489987926 0.41533833877 0.58156051901 0.72250639149 0.81684223539 0.85031750901 0.81794137472 0.72474752575 
0.58503135769 0.42017561563 0.25539501701 0.11589421937 0 0 0.0092863511673 0.085976519611 0.20024646881 
0.33483233157 0.4693586977 0.58344752567 0.65982489143 0.68695435984 0.6607966846 0.58542814635 0.47242347795 0.33909732697 
0.20587177559 0.093169933937 0 0 0.0053890134345 0.060452111203 0.14279352059 0.23988144763 0.33697096897 
0.41933430043 0.47449473453 0.49412254029 0.4753026329 0.42098006549 0.33951516765 0.24341619897 0.14744293007 0.066370238109 
0 0 0.0017117356292 0.035187023665 0.085574872191 0.14509895797 0.20466907105 0.25522825639 0.28911241202 
0.30120792877 0.28972685 0.25647941881 0.20660183543 0.14778111655 0.089096630989 0.039657361049 0 0 
-0.00091972479915 0.014325381775 0.037566573307 0.065115054943 0.092721099586 0.11617190144 0.13191011514 0.13756497377 0.13230911148 
0.11698420432 0.093975593604 0.066855735757 0.039853425764 0.0172356211 0 0 0 0 
0 0 0 0 0 0 0 0 0 
0 0 0 0 
