# vtk DataFile Version 5.1
vtk output
ASCII
DATASET STRUCTURED_POINTS
DIMENSIONS 16 16 1
SPACING 1 1 1
ORIGIN 0 0 0
POINT_DATA 256
SCALARS scalars double
LOOKUP_TABLE default
0 0 0 0 0 0 0 0 0 
0 0 0 0 0 0 0 0 -0.0044399483921 
-0.0026987106429 0.00088531938869 0.0054595024602 0.0101778134 0.014255214431 0.017049587294 0.018140604223 0.017385168578 0.0149373142 
0.011228559413 0.0069130048079 0.0027900619449 -0.00027207903857 0 0 -0.0027315595782 0.011462710234 0.033661018444 
0.060195221518 0.086882712125 0.10960141814 0.12488184966 0.13041611983 0.12540038161 0.11065543346 0.088506170363 0.062439137209 
0.036593304952 0.015167073806 0 0 0.00079661985754 0.0335948989 0.0832497423 0.1420312107 0.20091533615 
0.25092116374 0.28445455022 0.29645090353 0.28514005144 0.25231503735 0.2030632545 0.14500114778 0.087130023142 0.038488175979 
0 0 0.0053004057785 0.060041767191 0.14193721437 0.23851685699 0.33510651412 0.4170507159 0.47193566935 
0.49147436797 0.47276655278 0.41874129581 0.33771458403 0.24212917561 0.14666839298 0.066030077653 0 0 
0.0099454411585 0.086636549225 0.20071877044 0.33500029837 0.46918171695 0.5829580348 0.65911641252 0.68616081063 0.66006541892 
0.58489057966 0.472167626 0.33914608645 0.20616936491 0.093576801445 0 0 0.013958967703 0.1092735906 
0.25063300393 0.41684809622 0.5828599496 0.72358407598 0.8177476256 0.85113962361 0.81878199086 0.72569223577 0.58612225402 
0.42138894347 0.25662596044 0.1169492712 0 0 0.01670948126 0.12449749829 0.28410237899 0.47166494241 
0.65894826446 0.81767687314 0.92386736394 0.96149620722 0.92494957601 0.81988406955 0.66236807642 0.47643437963 0.29041560405 
0.13261845688 0 0 0.01778379422 0.13000982923 0.29607335666 0.49117603695 0.68596365487 0.85103904337 
0.96146600188 1.0005838512 0.96255528323 0.85326157159 0.68940970642 0.49598730866 0.30245182038 0.13823220308 0 
0 0.017041311237 0.12501001502 0.28477955099 0.47248523474 0.65988463009 0.81869694674 0.92493420669 0.96256974169 
0.92598858854 0.82084846179 0.66322097699 0.47714379706 0.29095548846 0.13296927562 0 0 0.014633543181 
0.11031546291 0.25200994251 0.41851699713 0.58476647549 0.72566269721 0.81992297297 0.8533294827 0.82090162686 0.72765928687 
0.58786127548 0.42283484688 0.25772603385 0.11766406098 0 0 0.010984912663 0.088241585406 0.20284064884 
0.33757462224 0.47212672037 0.58617356531 0.66248556614 0.68955480023 0.66335098665 0.58793845277 0.47486025154 0.34138317387 
0.2078705867 0.094682224505 0 0 0.0067391098638 0.062260968857 0.14487141482 0.24208193872 0.33919415907 
0.42152436163 0.47663185124 0.4962101559 0.47735155585 0.42299144864 0.34146454629 0.2452406316 0.14903286425 0.067567110767 
0 0 0.0026837897693 0.036496654105 0.087084158786 0.14669987277 0.20628723754 0.25682179823 0.29066625987 
0.30272441543 0.29121386532 0.25793771414 0.20801319712 0.1490990487 0.090240932026 0.040513623615 0 0 
-0.00032337905885 0.015132342968 0.038498494362 0.0661037314 0.093719257285 0.11715297801 0.13286481254 0.13849526271 0.13322059304 
0.1178779156 0.09484042832 0.067662624563 0.040552316017 0.017756157415 0 0 0 0 
0 0 0 0 0 0 0 0 0 
0 0 0 0 
