# vtk DataFile Version 5.1
vtk output
ASCII
DATASET STRUCTURED_POINTS
DIMENSIONS 16 16 1
SPACING 1 1 1
ORIGIN 0 0 0
POINT_DATA 256
SCALARS scalars double
LOOKUP_TABLE default
0 0 0 0 0 0 0 0 0 
0 0 0 0 0 0 0 0 -0.0047082082442 
-0.003074023278 0.0004396274945 0.0049749877357 0.009678245989 0.013755963946 0.016558713506 0.017661249379 0.016918767734 0.014487066073 
0.010802560643 0.0065264511317 0.0024659435276 -0.00050434286084 0 0 -0.0031846259534 0.010836059468 0.032922757606 
0.059397025848 0.086062678081 0.10878361885 0.12407837131 0.12963105954 0.12463510486 0.10991424827 0.087801511714 0.061795378108 
0.03604840172 0.014771365296 0 0 0.00014005392414 0.03269821787 0.082203108225 0.14090756856 0.1997671017 
0.24978032277 0.2833359154 0.29535794934 0.28407243954 0.25127672376 0.20206998147 0.1440861793 0.08634716504 0.037911377658 
0 0 0.0044364184768 0.058874529018 0.14058619294 0.23707624859 0.3336423605 0.41560182768 0.47051827993 
0.49008992551 0.47141160862 0.41741814069 0.33644116969 0.24094695546 0.1456470036 0.065268211649 0 0 
0.0088902302588 0.085222800779 0.19909348074 0.33327709188 0.4674386252 0.5812393518 0.65743874698 0.68452275565 0.65845967531 
0.58331697962 0.47064536734 0.33772362329 0.20493079221 0.092644165297 0 0 0.01274993521 0.10766327783 
0.24879092734 0.41490347124 0.58090013814 0.72165728994 0.81587017565 0.84930715521 0.81698345393 0.72392487819 0.58440577345 
0.41977710124 0.25521443719 0.11587927261 0 0 0.015402439422 0.12276306524 0.28212471037 0.46958320676 
0.65685558622 0.81562363426 0.92186926459 0.95954654495 0.9230344356 0.81799861622 0.66053197725 0.47470456908 0.28889513931 
0.13146102335 0 0 0.016447019279 0.1282389567 0.29405733118 0.48905710076 0.68383650126 0.84895435604 
0.95943881728 0.99860620993 0.96061184717 0.85134636977 0.68754200181 0.49422477461 0.30089976328 0.13704840849 0 
0 0.015747542766 0.12329584143 0.28282813569 0.47043455447 0.65782652045 0.81668048269 0.92297381055 0.96065747989 
0.92410935888 0.8189962774 0.66141438691 0.47543867111 0.28945391878 0.13182415163 0 0 0.013451295397 
0.10874596456 0.25022064644 0.41663466818 0.58287586108 0.72380939524 0.81812077116 0.85157161836 0.81917473566 0.72595836154 
0.58620380187 0.42127244912 0.25635242426 0.11661879856 0 0 0.009970566082 0.086889919674 0.20129533873 
0.3359454284 0.47048765177 0.58456499595 0.66092041039 0.68802818652 0.66185230712 0.5864642902 0.47342655161 0.3400351604 
0.20668929075 0.09378706096 0 0 0.0059311704036 0.061178481624 0.14362890491 0.2407680397 0.33786933749 
0.42022220931 0.47536387064 0.4949734893 0.4761386876 0.42180061967 0.34030951175 0.2441584816 0.14808889541 0.066856126285 
0 0 0.0021004712732 0.035709955468 0.086176997515 0.14573744616 0.20531460934 0.25586446673 0.28973350477 
0.3018149255 0.29032287074 0.2570646478 0.20716882852 0.14831108463 0.089557240893 0.040002468976 0 0 
-0.00068235481645 0.014645447916 0.037934856776 0.065504333885 0.093112763428 0.11655579834 0.13228310058 0.13792844173 0.1326658736 
0.11733515164 0.094316608499 0.06717531256 0.040131421175 0.017443510129 0 0 0 0 
0 0 0 0 0 0 0 0 0 
0 0 0 0 
