# vtk DataFile Version 5.1
vtk output
ASCII
DATASET STRUCTURED_POINTS
DIMENSIONS 16 16 1
SPACING 1 1 1
ORIGIN 0 0 0
POINT_DATA 256
SCALARS scalars double
LOOKUP_TABLE default
0 0 0 0 0 0 0 0 0 
0 0 0 0 0 0 0 0 -0.0022612371107 
0.00051257395923 0.00486945612 0.009993121215 0.015076424543 0.019360924693 0.022218085961 0.023232732337 0.02226335296 0.019464831854 
0.015269066825 0.010328631655 0.0054387167417 0.0014645194536 0 0 0.00051006664571 0.016163826551 0.039373707733 
0.066556003885 0.093616203144 0.11649803043 0.13177257593 0.13715256045 0.13184084755 0.11665492043 0.093907439377 0.067063416022 
0.040232568348 0.017586656151 0 0 0.0048628973728 0.039369112601 0.090083941788 0.14942529064 0.20852293904 
0.25851682654 0.29189387251 0.30363464775 0.29198402937 0.25872435853 0.2089091256 0.15010002484 0.091229157832 0.041270672144 
0 0 0.0099816139111 0.066545610333 0.14941919641 0.24635278264 0.34289868712 0.42458346466 0.4791198676 
0.49829400392 0.47923016609 0.42483796808 0.34337409311 0.24718775935 0.15084626727 0.068937787944 0 0 
0.01505987923 0.093599834642 0.2085104568 0.34289216352 0.47674211738 0.5899955707 0.66560945116 0.69218741776 0.6657371925 
0.59029109953 0.47729652324 0.34387171059 0.21019798949 0.096458900537 0 0 0.019340065169 0.1164765176 
0.25849880391 0.42457123386 0.58998981215 0.72995820346 0.823408699 0.85625172153 0.82354999201 0.73028585016 0.59060679235 
0.42566699681 0.26039928987 0.11972419973 0 0 0.022194323167 0.13174759046 0.29187209495 0.47910375108 
0.66559975383 0.82340474443 0.92876397939 0.96578972774 0.92891374803 0.82375262248 0.66625655884 0.48027437364 0.29391147529 
0.1352517346 0 0 0.023207933285 0.13712632857 0.30361151338 0.498276473 0.69217627642 0.85624630838 
0.96578826319 1.0042829527 0.96594053525 0.85660027871 0.69284538939 0.4994708779 0.30569617778 0.14071598667 0 
0 0.022239540885 0.13181578308 0.29196214027 0.47921390454 0.6657273187 0.82354583514 0.92891352869 0.96594177449 
0.92906193665 0.8238907799 0.66637919665 0.48037699277 0.29399062668 0.13530490214 0 0 0.019443862011 
0.11663322859 0.25870608017 0.42482540145 0.59028492938 0.7302853759 0.82375606136 0.8566051616 0.8238944209 0.73060666723 
0.59089115181 0.42590455115 0.26058226984 0.11984698832 0 0 0.015252325838 0.093890746473 0.20889617056 
0.34336693862 0.47729574092 0.59061164251 0.66626526409 0.69285550903 0.66638807756 0.59089641251 0.47783171635 0.34431758564 
0.21054068176 0.096688574083 0 0 0.01031680641 0.067052477226 0.15009311206 0.24718664232 0.3438768273 
0.42567757764 0.48028867812 0.49948653919 0.48039144007 0.42591546397 0.3443233294 0.24797540142 0.15144979097 0.069341877986 
0 0 0.0054316739079 0.040227097067 0.091227784799 0.15085043093 0.21020799236 0.26041436981 0.29393000021 
0.30571594912 0.29400925825 0.26059759606 0.21055114478 0.1514547616 0.092262839224 0.041962825132 0 0 
0.0014613351892 0.017585310988 0.041273020188 0.068944894509 0.096470946041 0.11974051018 0.13527092802 0.14073621634 0.13532416513 
0.11986345835 0.096700914331 0.069349492528 0.041966015489 0.018749654882 0 0 0 0 
0 0 0 0 0 0 0 0 0 
0 0 0 0 
