# vtk DataFile Version 5.1
vtk output
ASCII
DATASET STRUCTURED_POINTS
DIMENSIONS 16 16 1
SPACING 1 1 1
ORIGIN 0 0 0
POINT_DATA 256
SCALARS scalars double
LOOKUP_TABLE default
0 0 0 0 0 0 0 0 0 
0 0 0 0 0 0 0 0 -0.0066529860531 
-0.0054439563616 -0.0024293895492 0.001564392412 0.0057545237683 0.0094341059645 0.012033669206 0.013183666985 0.012758961652 0.010893843098 
0.0079634176937 0.0045344107611 0.001295433094 -0.0010163650338 0 0 -0.0054439563616 0.008480055146 0.030388680401 
0.056631413198 0.083069450397 0.10563572392 0.12091268209 0.12662956007 0.12199669854 0.10782215148 0.086391024259 0.061125657853 
0.036079451758 0.015343399359 0 0 -0.0024293895492 0.030388680401 0.080022660804 0.13876430731 0.19762847854 
0.24767978668 0.28136659902 0.29365560211 0.28279094529 0.25056017038 0.20202520921 0.1447589241 0.087703336757 0.039822936733 
0 0 0.001564392412 0.056631413198 0.13876430731 0.23552831189 0.33229230836 0.41444559947 0.46961468622 
0.48954309119 0.47134767178 0.41795963099 0.33768265847 0.24293512997 0.14836736928 0.068639475289 0 0 
0.0057545237683 0.083069450397 0.19762847854 0.33229230836 0.46681317656 0.58093440877 0.65748497593 0.68500124219 0.65947854112 
0.58498681691 0.47305699881 0.34093155449 0.20894517342 0.097433357634 0 0 0.0094341059645 0.10563572392 
0.24767978668 0.41444559947 0.58093440877 0.72211421384 0.81675624769 0.8506842492 0.81894511556 0.72657242904 0.58782769576 
0.42403525177 0.2603403544 0.12188338791 0 0 0.012033669206 0.12091268209 0.28136659902 0.46961468622 
0.65748497593 0.81675624769 0.92348977221 0.96169765982 0.92579346422 0.82145454724 0.66476643666 0.47978019776 0.29485486255 
0.13834145936 0 0 0.013183666985 0.12662956007 0.29365560211 0.48954309119 0.68500124219 0.8506842492 
0.96169765982 1.0014146091 0.96402526135 0.85543408125 0.69236998967 0.49984576413 0.30735380362 0.14437734258 0 
0 0.012758961652 0.12199669854 0.28279094529 0.47134767178 0.65947854112 0.81894511556 0.92579346422 0.96402526135 
0.92805034719 0.82354979702 0.6666195679 0.48132590636 0.29604503626 0.13914439399 0 0 0.010893843098 
0.10782215148 0.25056017038 0.41795963099 0.58498681691 0.72657242904 0.82145454724 0.85543408125 0.82354979702 0.73084341481 
0.59159926305 0.42717478182 0.26275240651 0.12350734877 0 0 0.0079634176937 0.086391024259 0.20202520921 
0.33768265847 0.47305699881 0.58782769576 0.66476643666 0.69236998967 0.6666195679 0.59159926305 0.47887962235 0.3457603479 
0.21263971815 0.099911201193 0 0 0.0045344107611 0.061125657853 0.1447589241 0.24293512997 0.34093155449 
0.42403525177 0.47978019776 0.49984576413 0.48132590636 0.42717478182 0.3457603479 0.24959360701 0.15342686047 0.072010487029 
0 0 0.001295433094 0.036079451758 0.087703336757 0.14836736928 0.20894517342 0.2603403544 0.29485486255 
0.30735380362 0.29604503626 0.26275240651 0.21263971815 0.15342686047 0.094217269713 0.044115347391 0 0 
-0.0010163650338 0.015343399359 0.039822936733 0.068639475289 0.097433357634 0.12188338791 0.13834145936 0.14437734258 0.13914439399 
0.12350734877 0.099911201193 0.072010487029 0.044115347391 0.020539136141 0 0 0 0 
0 0 0 0 0 0 0 0 0 
0 0 0 0 
