# vtk DataFile Version 5.1
vtk output
ASCII
DATASET STRUCTURED_POINTS
DIMENSIONS 16 16 1
SPACING 1 1 1
ORIGIN 0 0 0
POINT_DATA 256
SCALARS scalars double
LOOKUP_TABLE default
0 0 0 0 0 0 0 0 0 
0 0 0 0 0 0 0 0 0.0038436386941 
0.0086038889589 0.013827532751 0.019036512418 0.023721288967 0.027386420794 0.029613651227 0.030121503545 0.028807729858 0.025767077305 
0.021283287995 0.01580192569 0.0099015198074 0.0043014080063 0 0 0.0098924487329 0.024551491962 0.042488892787 
0.06168767613 0.079823956481 0.094584534485 0.10400577936 0.10676899312 0.10240143767 0.091351083487 0.074925883857 0.055113344789 
0.034321911357 0.015111202671 0 0 0.01771677068 0.04621383454 0.082550095206 0.12238942247 0.16061726652 
0.19210506349 0.2124899991 0.21884198148 0.21011200191 0.18729301325 0.15327075579 0.11239173584 0.069822802338 0.030814561591 
0 0 0.026421753417 0.070804997685 0.12853984401 0.19255791872 0.25442964693 0.30567132841 0.33905734318 
0.34973363389 0.33596171132 0.29938103505 0.2447513691 0.17921528183 0.11119460469 0.049092227854 0 0 
0.034864293264 0.094906243376 0.17386845898 0.26195549353 0.34741611308 0.41839938546 0.46480488485 0.47984598427 0.46109046201 
0.41082389976 0.33568220752 0.24560601567 0.15227015438 0.06722139108 0 0 0.041866319035 0.11504258925 
0.211884993 0.32029053363 0.4256916579 0.51338027419 0.57081630633 0.58957314095 0.56662915663 0.50481610949 0.41235854632 
0.30156705127 0.1868711971 0.082478491854 0 0 0.046414386563 0.12824312256 0.23692192968 0.35881041704 
0.47746241799 0.57626326078 0.6410450039 0.66228691574 0.63657378914 0.56710058316 0.46314999117 0.33861199271 0.20975231946 
0.092551617016 0 0 0.047824404249 0.13250990561 0.24517520015 0.37164717233 0.49482767546 0.59744003018 
0.66475098838 0.68685977022 0.66021413544 0.58813445091 0.48026985484 0.35105765504 0.21740001039 0.095891867467 0 
0 0.045850676515 0.12712968585 0.23529020976 0.35671387983 0.47497955744 0.57349735467 0.6381201058 0.65934054706 
0.63374742696 0.56452935989 0.46095316157 0.33688572619 0.20856607747 0.091948512259 0 0 0.040724915781 
0.11278426878 0.20856805369 0.31601881524 0.42062224003 0.50772358732 0.56482779304 0.58353759804 0.56084016824 0.49955368041 
0.40786837912 0.29804495287 0.18445558346 0.081252314393 0 0 0.033120711306 0.091444735546 0.16876241237 
0.25535129938 0.33954910721 0.40959529896 0.45546624645 0.47042577984 0.45205722208 0.40262352093 0.32870241183 0.24014952113 
0.14854219351 0.065335399248 0 0 0.024050337652 0.066066911031 0.12149825873 0.18338573443 0.24343882375 
0.29331633737 0.32591417208 0.33645865842 0.32323697977 0.28785412224 0.23497882707 0.17161903649 0.10604084139 0.046502399094 
0 0 0.014712777851 0.040135994424 0.073400050153 0.11033719265 0.14604788996 0.17562266127 0.19488516453 
0.20102934863 0.19304749173 0.17188255834 0.14028333071 0.10238949024 0.063121773785 0.027495002922 0 0 
0.0063257359589 0.01713225527 0.031060360979 0.046370333042 0.061071823206 0.073183967388 0.081024414359 0.083462523963 0.080090997474 
0.071287972195 0.058161361796 0.042389041967 0.025993361641 0.011123827854 0 0 0 0 
0 0 0 0 0 0 0 0 0 
0 0 0 0 
