# vtk DataFile Version 5.1
vtk output
ASCII
DATASET STRUCTURED_POINTS
DIMENSIONS 16 16 1
SPACING 1 1 1
ORIGIN 0 0 0
POINT_DATA 256
SCALARS scalars double
LOOKUP_TABLE default
0 0 0 0 0 0 0 0 0 
0 0 0 0 0 0 0 0 -0.0022659040947 
-0.0018993304325 0.00072006286954 0.0048235066984 0.009449368018 0.013621246902 0.016508722029 0.017558016278 0.016578121993 0.01377205601 
0.0097101876854 0.0052514238289 0.0014279647608 -0.00067716432003 0 0 -0.0031878993361 0.0025139388848 0.015389438199 
0.032659252262 0.050988668811 0.067030793587 0.077948535698 0.081849579649 0.078075326775 0.067303811076 0.05145322237 0.033402200965 
0.016570965292 0.0044287796247 0 0 -0.003169211575 0.011664448983 0.040689019476 0.078132680262 0.1171853123 
0.15104839791 0.17396918261 0.18211113618 0.17413392956 0.15139831425 0.11776674078 0.079030477335 0.04204943653 0.013732191668 
0 0 -0.002561823751 0.02354177787 0.071982110806 0.13345474918 0.19707417183 0.25200597299 0.28909261099 
0.30222808871 0.28927489272 0.25238644735 0.19768762024 0.13436114393 0.073276712324 0.025368248759 0 0 
-0.0016938045851 0.035906059229 0.10393369594 0.18954796244 0.27779606268 0.35382221241 0.40507944851 0.42320361473 0.40526336102 
0.35419847288 0.27838156614 0.19036769781 0.10501882011 0.037287742655 0 0 -0.00085891197487 0.04657220695 
0.13126767514 0.23738585797 0.34652927565 0.44043987247 0.50370532199 0.52605356608 0.50388244891 0.44079505012 0.34706186491 
0.23808778585 0.13211215342 0.047493507787 0 0 -0.0002923547046 0.053710472711 0.14953611252 0.26933808401 
0.39242053518 0.49825756384 0.56952846696 0.59469139563 0.56969791989 0.49859234525 0.39290831796 0.26994900734 0.15020567578 
0.054310568511 0 0 -0.00014526810648 0.05610784954 0.15577659758 0.28031280685 0.40822013811 0.51818537769 
0.59222678029 0.61836337507 0.59239273262 0.51851215472 0.40869302138 0.28089724498 0.15639935673 0.05662497974 0 
0 -0.00046519868594 0.053346287538 0.14895445843 0.26852106982 0.39137257418 0.49701300598 0.56815105138 0.59326626795 
0.56831868461 0.49734656822 0.39186515966 0.26915227676 0.14967436716 0.054046651082 0 0 -0.0011861023981 
0.04586996424 0.13012225513 0.23574739145 0.34439890516 0.43788677794 0.50086494907 0.52310923957 0.50103601549 0.43823409521 
0.34493164085 0.23647530603 0.13104756417 0.046969146953 0 0 -0.002127478898 0.034933883884 0.10227437525 
0.18708686717 0.27451396552 0.34982479767 0.40059223108 0.41853757858 0.40076157983 0.35017674803 0.27507712505 0.18790928881 
0.10342860857 0.036518806602 0 0 -0.0029971541073 0.022448314146 0.06992351581 0.13019022679 0.19253455567 
0.24633845117 0.2826471067 0.29549672569 0.28280150198 0.24666645062 0.19308010434 0.1310346144 0.071207797675 0.024407077986 
0 0 -0.003383393224 0.010756694766 0.038471945163 0.074133885413 0.11124093661 0.1433607088 0.16507303239 
0.1727703345 0.16519327078 0.14362081995 0.11168759081 0.074859186633 0.039651688554 0.012725360992 0 0 
-0.0027015385876 0.0024076417082 0.013486284795 0.028090042509 0.043437252331 0.05678804654 0.065837862158 0.069054463356 0.065904310109 
0.056933600318 0.043692909073 0.028520462654 0.014227009167 0.0037603784342 0 0 0 0 
0 0 0 0 0 0 0 0 0 
0 0 0 0 
