# vtk DataFile Version 5.1
vtk output
ASCII
DATASET STRUCTURED_POINTS
DIMENSIONS 16 16 1
SPACING 1 1 1
ORIGIN 0 0 0
POINT_DATA 256
SCALARS scalars double
LOOKUP_TABLE default
0 0 0 0 0 0 0 0 0 
0 0 0 0 0 0 0 0 -2.4802017721e-08 
-2.7596645514e-08 -2.9665643404e-08 -3.112259828e-08 -3.2113263061e-08 -3.2731646318e-08 -3.3029511903e-08 -3.3029511903e-08 -3.2731646318e-08 -3.2113263061e-08 
-3.112259828e-08 -2.9665643404e-08 -2.7596645514e-08 -2.4802017721e-08 0 0 -2.7596645514e-08 -2.9016414165e-08 -3.0369881226e-08 
-3.1462818246e-08 -3.2264451872e-08 -3.2785993254e-08 -3.3042462616e-08 -3.3042462616e-08 -3.2785993254e-08 -3.2264451871e-08 -3.1462818246e-08 -3.0369881225e-08 
-2.9016414165e-08 -2.7596645514e-08 0 0 -2.9665643405e-08 -3.0369881226e-08 -3.1195860649e-08 -3.1950558515e-08 -3.2548286418e-08 
-3.2955582294e-08 -3.3160880725e-08 -3.3160880725e-08 -3.2955582293e-08 -3.2548286418e-08 -3.1950558514e-08 -3.1195860648e-08 -3.0369881226e-08 -2.9665643404e-08 
0 0 -3.1122598281e-08 -3.1462818247e-08 -3.1950558515e-08 -3.2449256711e-08 -3.2873809379e-08 -3.3176563847e-08 -3.3333054135e-08 
-3.3333054135e-08 -3.3176563847e-08 -3.2873809379e-08 -3.244925671e-08 -3.1950558515e-08 -3.1462818247e-08 -3.112259828e-08 0 0 
-3.2113263062e-08 -3.2264451874e-08 -3.254828642e-08 -3.287380938e-08 -3.3170899309e-08 -3.339219478e-08 -3.350938788e-08 -3.350938788e-08 -3.3392194779e-08 
-3.3170899308e-08 -3.2873809379e-08 -3.2548286419e-08 -3.2264451873e-08 -3.2113263062e-08 0 0 -3.273164632e-08 -3.2785993257e-08 
-3.2955582296e-08 -3.3176563849e-08 -3.3392194781e-08 -3.3559327863e-08 -3.364977894e-08 -3.364977894e-08 -3.3559327862e-08 -3.339219478e-08 -3.3176563848e-08 
-3.2955582295e-08 -3.2785993256e-08 -3.2731646319e-08 0 0 -3.3029511905e-08 -3.3042462619e-08 -3.3160880728e-08 -3.3333054137e-08 
-3.3509387882e-08 -3.3649778941e-08 -3.3726843713e-08 -3.3726843713e-08 -3.364977894e-08 -3.3509387881e-08 -3.3333054136e-08 -3.3160880727e-08 -3.3042462618e-08 
-3.3029511904e-08 0 0 -3.3029511905e-08 -3.304246262e-08 -3.3160880728e-08 -3.3333054137e-08 -3.3509387882e-08 -3.3649778941e-08 
-3.3726843713e-08 -3.3726843713e-08 -3.364977894e-08 -3.3509387881e-08 -3.3333054136e-08 -3.3160880727e-08 -3.3042462619e-08 -3.3029511904e-08 0 
0 -3.273164632e-08 -3.2785993257e-08 -3.2955582296e-08 -3.3176563849e-08 -3.3392194781e-08 -3.3559327863e-08 -3.364977894e-08 -3.364977894e-08 
-3.3559327862e-08 -3.339219478e-08 -3.3176563848e-08 -3.2955582295e-08 -3.2785993256e-08 -3.2731646319e-08 0 0 -3.2113263063e-08 
-3.2264451874e-08 -3.254828642e-08 -3.2873809381e-08 -3.3170899309e-08 -3.339219478e-08 -3.350938788e-08 -3.350938788e-08 -3.339219478e-08 -3.3170899308e-08 
-3.287380938e-08 -3.2548286419e-08 -3.2264451873e-08 -3.2113263062e-08 0 0 -3.1122598281e-08 -3.1462818248e-08 -3.1950558516e-08 
-3.2449256711e-08 -3.287380938e-08 -3.3176563848e-08 -3.3333054135e-08 -3.3333054135e-08 -3.3176563847e-08 -3.2873809379e-08 -3.2449256711e-08 -3.1950558515e-08 
-3.1462818247e-08 -3.1122598281e-08 0 0 -2.9665643405e-08 -3.0369881227e-08 -3.1195860649e-08 -3.1950558515e-08 -3.2548286419e-08 
-3.2955582294e-08 -3.3160880725e-08 -3.3160880725e-08 -3.2955582293e-08 -3.2548286418e-08 -3.1950558514e-08 -3.1195860649e-08 -3.0369881226e-08 -2.9665643405e-08 
0 0 -2.7596645514e-08 -2.9016414165e-08 -3.0369881226e-08 -3.1462818246e-08 -3.2264451872e-08 -3.2785993255e-08 -3.3042462617e-08 
-3.3042462616e-08 -3.2785993254e-08 -3.2264451872e-08 -3.1462818246e-08 -3.0369881226e-08 -2.9016414165e-08 -2.7596645514e-08 0 0 
-2.4802017721e-08 -2.7596645514e-08 -2.9665643404e-08 -3.112259828e-08 -3.2113263061e-08 -3.2731646318e-08 -3.3029511903e-08 -3.3029511903e-08 -3.2731646318e-08 
-3.2113263061e-08 -3.112259828e-08 -2.9665643404e-08 -2.7596645514e-08 -2.4802017721e-08 0 0 0 0 
0 0 0 0 0 0 0 0 0 
0 0 0 0 
