# vtk DataFile Version 5.1
vtk output
ASCII
DATASET STRUCTURED_POINTS
DIMENSIONS 16 16 1
SPACING 1 1 1
ORIGIN 0 0 0
POINT_DATA 256
SCALARS scalars double
LOOKUP_TABLE default
0 0 0 0 0 0 0 0 0 
0 0 0 0 0 0 0 0 0.0011842141819 
0.0050797442317 0.011050460452 0.018144436075 0.025238892098 0.031211078809 0.035108988156 0.036296115562 0.034549053082 0.030094670611 
0.023583916659 0.016011481904 0.0086062813719 0.0027441337141 0 0 0.0050797442317 0.020591868823 0.044088610702 
0.071906882159 0.09972608461 0.12322584694 0.13874312275 0.14382868988 0.13761979029 0.12097512394 0.096355544085 0.067474218281 
0.038780456369 0.014877837179 0 0 0.011050460452 0.044088610702 0.09395525985 0.15292959612 0.21190510573 
0.26177633402 0.29482394797 0.30588632087 0.29314127159 0.25838371679 0.20676130098 0.14601058728 0.085313516524 0.033956020027 
0 0 0.018144436075 0.071906882159 0.15292959612 0.24870499933 0.34448114987 0.42550954064 0.47928934377 
0.49746259814 0.47707452115 0.42101618257 0.33758802372 0.23924713982 0.1407223669 0.056782783458 0 0 
0.025238892098 0.09972608461 0.21190510573 0.34448114987 0.47705680589 0.58924295229 0.66376344296 0.68907098698 0.66107980852 
0.58376955365 0.46857889637 0.33266886133 0.19629982993 0.079713970585 0 0 0.031211078809 0.12322584694 
0.26177633402 0.42550954064 0.58924295229 0.72780946355 0.81989301806 0.85125207748 0.81684548274 0.72156904552 0.57950872723 
0.41180071477 0.24338665498 0.099145666843 0 0 0.035108988156 0.13874312275 0.29482394797 0.47928934377 
0.66376344296 0.81989301806 0.92367185129 0.95906722806 0.92040315261 0.81318279392 0.65325066063 0.46438866076 0.27465904993 
0.11203525482 0 0 0.036296115562 0.14382868988 0.30588632087 0.49746259814 0.68907098698 0.85125207748 
0.95906722806 0.99586380028 0.95574618928 0.84442737185 0.67836029909 0.482243926 0.28522423037 0.1163512345 0 
0 0.034549053082 0.13761979029 0.29314127159 0.47707452115 0.66107980852 0.81684548274 0.92040315261 0.95574618928 
0.91720784788 0.81028211195 0.65078786781 0.46247049822 0.27335310063 0.11137598042 0 0 0.030094670611 
0.12097512394 0.25838371679 0.42101618257 0.58376955365 0.72156904552 0.81318279392 0.84442737185 0.81028211195 0.71562199103 
0.57447533378 0.40789650844 0.24074025275 0.097814516791 0 0 0.023583916659 0.096355544085 0.20676130098 
0.33758802372 0.46857889637 0.57950872723 0.65325066063 0.67836029909 0.65078786781 0.57447533378 0.46075786543 0.32664957423 
0.19225546804 0.077695044345 0 0 0.016011481904 0.067474218281 0.14601058728 0.23924713982 0.33266886133 
0.41180071477 0.46438866076 0.482243926 0.46247049822 0.40789650844 0.32664957423 0.23093925359 0.13522948858 0.054082587799 
0 0 0.0086062813719 0.038780456369 0.085313516524 0.1407223669 0.19629982993 0.24338665498 0.27465904993 
0.28522423037 0.27335310063 0.24074025275 0.19225546804 0.13522948858 0.078394424425 0.030667039545 0 0 
0.0027441337141 0.014877837179 0.033956020027 0.056782783458 0.079713970585 0.099145666843 0.11203525482 0.1163512345 0.11137598042 
0.097814516791 0.077695044345 0.054082587799 0.030667039545 0.011341200142 0 0 0 0 
0 0 0 0 0 0 0 0 0 
0 0 0 0 
