# vtk DataFile Version 5.1
vtk output
ASCII
DATASET STRUCTURED_POINTS
DIMENSIONS 16 16 1
SPACING 1 1 1
ORIGIN 0 0 0
POINT_DATA 256
SCALARS scalars double
LOOKUP_TABLE default
0 0 0 0 0 0 0 0 0 
0 0 0 0 0 0 0 0 0.0029643868489 
0.007850960591 0.014061564588 0.020824873875 0.027264758121 0.032513885127 0.035838019654 0.036745154942 0.035060466819 0.030955856156 
0.024931943659 0.017761188608 0.010415372138 0.004026821264 0 0 0.008647320503 0.025456762512 0.048284678515 
0.074053135205 0.099165943167 0.12003381363 0.13361224526 0.13786211957 0.13206006252 0.11691206428 0.094456398384 0.067777399302 
0.040587730571 0.016770801883 0 0 0.016465190518 0.050586747634 0.097967334082 0.15206685851 0.20517162628 
0.249560208 0.27867772504 0.28813344144 0.27636829055 0.24489295901 0.19806374017 0.14243408938 0.085787430215 0.036011339965 
0 0 0.025389067942 0.079687719268 0.15586780589 0.24330713962 0.32942065398 0.40159235351 0.44910820196 
0.46479108048 0.4460898186 0.39546231727 0.31999858139 0.2303395409 0.13905330033 0.058717171607 0 0 
0.034151255818 0.1084868179 0.2133606654 0.33407130663 0.45315808747 0.55310435893 0.61903307338 0.64097944555 0.61539858776 
0.54569131261 0.44167481404 0.31806998967 0.1922206089 0.081383628914 0 0 0.041462550726 0.13267676504 
0.26178363096 0.41062600229 0.5576100183 0.68106500579 0.76258787362 0.78985493209 0.75848002549 0.67265869496 0.54451175319 
0.39221079581 0.23714214024 0.10052586477 0 0 0.046220910044 0.14859061766 0.29377565397 0.46131375261 
0.62685320109 0.76595256907 0.85785908221 0.88867884685 0.85346566262 0.75694241202 0.61276150609 0.44139213733 0.26691525515 
0.11319419921 0 0 0.047685542313 0.15376958073 0.30440610801 0.47833130828 0.65023512416 0.79471411945 
0.8902004884 0.92225610435 0.88574051458 0.78555870101 0.63589313826 0.45800928389 0.27692311032 0.11741602342 0 
0 0.045592992251 0.14734169803 0.29192720747 0.45891244781 0.62397923404 0.76272218511 0.85442017796 0.88520058503 
0.85012424147 0.75390557114 0.6101744683 0.43936768921 0.26553014037 0.11249231673 0 0 0.040199798756 
0.13015744452 0.25803999683 0.40574283116 0.55174474035 0.67445408737 0.75553753049 0.78271841824 0.75162621692 0.66643774477 
0.53922396689 0.38808488575 0.23432797089 0.099103447761 0 0 0.032247485429 0.10466483263 0.2076369643 
0.32654832007 0.44406346824 0.54280347426 0.60801321929 0.62981038295 0.60467762871 0.53598302999 0.43345625229 0.31169237036 
0.18789731573 0.079210009819 0 0 0.022858722403 0.074546562962 0.14806152402 0.23291626117 0.31673004314 
0.38711155831 0.4335450993 0.44898767988 0.43093333296 0.38178725785 0.30849694668 0.22149651748 0.133125489 0.05576840254 
0 0 0.01338873329 0.044180731393 0.087997899627 0.13852300466 0.18837480689 0.23019023727 0.25772727341 
0.26680613419 0.25593976951 0.22655786977 0.18279328807 0.13086890167 0.078191247192 0.032317691543 0 0 
0.0052778506257 0.018019744458 0.036163080093 0.05703478706 0.077582900709 0.094781578501 0.10607018685 0.10973455094 0.10516425777 
0.092945364091 0.074776336593 0.053226260784 0.031389639387 0.01254115733 0 0 0 0 
0 0 0 0 0 0 0 0 0 
0 0 0 0 
