# vtk DataFile Version 5.1
vtk output
ASCII
DATASET STRUCTURED_POINTS
DIMENSIONS 16 16 1
SPACING 1 1 1
ORIGIN 0 0 0
POINT_DATA 256
SCALARS scalars double
LOOKUP_TABLE default
0 0 0 0 0 0 0 0 0 
0 0 0 0 0 0 0 0 -0.0017729978859 
-0.0027568314305 -0.0029895465031 -0.0026519251511 -0.0019909842872 -0.0012627124334 -0.00068556760542 -0.00040463498386 -0.00046874414885 -0.00082271928707 
-0.001315679658 -0.0017247344081 -0.0017921921272 -0.0012741897917 0 0 -0.00355321666 -0.0048360586263 -0.0041527043311 
-0.0020886095424 0.00063109527814 0.003274097348 0.0052202692081 0.0060580888288 0.0056475695652 0.0041419411709 0.0019651287989 -0.00025250728379 
-0.0017731219323 -0.0018758268856 0 0 -0.0053932737022 -0.0064549044753 -0.00394665571 0.00095048311229 0.0068427048058 
0.012343933881 0.016286723282 0.017897289706 0.01691125743 0.013613982146 0.0087995881743 0.0036540854791 -0.00042201449638 -0.002029390916 
0 0 -0.0072163679383 -0.0077236160028 -0.0028508714387 0.005516549691 0.015210794835 0.024096309828 0.030380938223 
0.032878136276 0.031181726197 0.025727241551 0.017730644155 0.0090133323142 0.0017389950867 -0.0018996784114 0 0 
-0.008877953107 -0.0086906781299 -0.0013475189044 0.010559094976 0.024091975648 0.036374535915 0.044998592054 0.048371094102 0.045946278115 
0.038307577287 0.027086775228 0.014732907256 0.0041665857668 -0.0016266440746 0 0 -0.010212114813 -0.0093703543084 
0.00011824292507 0.015059922117 0.031866710336 0.047037093909 0.057644280139 0.061753330489 0.058701195176 0.049195842186 0.035219205764 
0.019749484377 0.006346948747 -0.0013301806416 0 0 -0.011069433024 -0.0097601607711 0.0011854655078 0.018170858613 
0.037173744082 0.054276581439 0.066207859825 0.070805625377 0.067329085958 0.056569123085 0.040740615875 0.02317409416 0.0078564481977 
-0.0011042873053 0 0 -0.011346126958 -0.009851732617 0.001620715831 0.019332379671 0.039109185882 0.056889196456 
0.069281817879 0.074046957196 0.07041726625 0.059212517446 0.042728400763 0.024417905183 0.0084168317575 -0.0010087943252 0 
0 -0.011002351368 -0.0096363602987 0.0013485908838 0.01835386622 0.037359799725 0.054454422062 0.066372525649 0.070957141236 
0.067469772616 0.056700501833 0.040860941341 0.023277401997 0.007933608098 -0.0010626896727 0 0 -0.010067588983 
-0.0091053594525 0.00046393634886 0.015442771526 0.032250084693 0.047397734978 0.057973587027 0.062054041527 0.058981047268 0.049460345089 
0.035465821055 0.019965230362 0.0065106828767 -0.0012409503344 0 0 -0.0086319269756 -0.008244718435 -0.00077571485246 
0.011178417226 0.024695926973 0.036926578381 0.045489801775 0.048813263526 0.046359785972 0.038707742818 0.027472662053 0.015082233941 
0.0044393860902 -0.0014750552845 0 0 -0.0068227500452 -0.0070226022667 -0.0019746306033 0.0064352339069 0.016071861074 
0.024848677618 0.031022258398 0.033441385433 0.031713570642 0.026264006125 0.018278083957 0.0095362059178 0.0021655467726 -0.0016553549888 
0 0 -0.0047658437052 -0.0053666679598 -0.0026331943759 0.0022685906489 0.0080119664347 0.013298976178 0.017045177341 
0.018534952325 0.017525113643 0.014281590678 0.0095438223824 0.0044222617184 0.00024419489228 -0.0016302394094 0 0 
-0.002525353804 -0.0031250176381 -0.0021814438862 -0.00021758657698 0.0021739257213 0.0044141830565 0.006020060361 0.0066731798803 0.0062658788285 
0.0049175203016 0.0029588410578 0.00088688046913 -0.00070216381572 -0.0011897563938 0 0 0 0 
0 0 0 0 0 0 0 0 0 
0 0 0 0 
