# vtk DataFile Version 5.1
vtk output
ASCII
DATASET STRUCTURED_POINTS
DIMENSIONS 16 16 1
SPACING 1 1 1
ORIGIN 0 0 0
POINT_DATA 256
SCALARS scalars double
LOOKUP_TABLE default
0 0 0 0 0 0 0 0 0 
0 0 0 0 0 0 0 0 0.0020047620102 
0.0037382162704 0.0051168278964 0.0061394242241 0.0068382949808 0.0072545632394 0.0074243621647 0.0073707957663 0.0070998620567 0.0065998751823 
0.0058446854154 0.0048018627231 0.0034488394915 0.0018047965003 0 0 0.0045346014151 0.0087913355994 0.012606800027 
0.015866598735 0.018470112337 0.020323582095 0.021346384995 0.021481276828 0.020703072288 0.019022938844 0.016487922494 0.013177948944 
0.0092058248772 0.0047304248813 0 0 0.0075205547564 0.01490899973 0.021941786932 0.02832509527 0.033712698325 
0.037750066617 0.040128174129 0.040632992528 0.039180066649 0.035827684201 0.030766841542 0.024291222582 0.016755435232 0.008534381267 
0 0 0.010703866182 0.021501603778 0.03212644846 0.042074937034 0.050696603302 0.057307809972 0.061309315349 
0.062287500527 0.060082580457 0.054812887673 0.046851620959 0.036760304437 0.025190507895 0.012770977955 0 0 
0.013725262246 0.027791882769 0.041902918173 0.055348299915 0.06716891397 0.076343872062 0.081975254033 0.083443622329 0.080511343817 
0.073358281827 0.062544395577 0.048904564612 0.033390765771 0.016883837235 0 0 0.01620396322 0.032968028874 
0.049975750406 0.066344189625 0.080851691854 0.092188752736 0.099201105573 0.10109236827 0.097557788605 0.088829740747 0.075627924185 
0.059020550371 0.040214861484 0.020303920762 0 0 0.017808224452 0.036326808402 0.055229421668 0.073519382172 
0.089800090056 0.10256879738 0.11049917343 0.11267586453 0.10874882531 0.098985420407 0.0842121851 0.065653214222 0.044685764331 
0.022543307686 0 0 0.01831228423 0.037391090829 0.056909554583 0.07583324183 0.09270551512 0.10595649117 
0.11419966739 0.11647787622 0.11242496528 0.10232024259 0.087027202136 0.06782376742 0.046145480747 0.02327311207 0 
0 0.017633465861 0.035986994961 0.054742721887 0.0729104259 0.089097807558 0.10180455101 0.10970538086 0.1118850898 
0.10799316509 0.098295942334 0.083618177125 0.065181078377 0.044357534722 0.022374972839 0 0 0.015844741962 
0.032270233459 0.048977720866 0.065097346444 0.07941576372 0.090627841042 0.09758095476 0.099478720384 0.096015399017 0.087421495615 
0.074413505653 0.05805424437 0.039542413694 0.019958810647 0 0 0.013160930519 0.02669776531 0.040342138196 
0.053403840582 0.064935237651 0.073920548742 0.079463000513 0.080942343375 0.078119336519 0.071171585987 0.060655279754 0.047398342468 
0.032340620265 0.016344178712 0 0 0.0098998768523 0.01994804102 0.029919934712 0.039338398691 0.047565607803 
0.053921356619 0.057805052287 0.058800291242 0.056744913782 0.051755471275 0.04420249349 0.03464098293 0.023708254262 0.012007598345 
0 0 0.0064224901631 0.012799369207 0.018966612914 0.024660910185 0.029545383762 0.033262834173 0.035497036883 
0.036027362865 0.03476603189 0.031771507869 0.027236185 0.021451539642 0.014759267286 0.0075027732237 0 0 
0.0030559600931 0.0059796148619 0.0086864332672 0.011088885209 0.013083266906 0.014559557164 0.015418960787 0.015591139059 0.015046405573 
0.013800340966 0.01191028293 0.0094653631248 0.0065746976897 0.0033635374617 0 0 0 0 
0 0 0 0 0 0 0 0 0 
0 0 0 0 
