# vtk DataFile Version 5.1
vtk output
ASCII
DATASET STRUCTURED_POINTS
DIMENSIONS 16 16 1
SPACING 1 1 1
ORIGIN 0 0 0
POINT_DATA 256
SCALARS scalars double
LOOKUP_TABLE default
0 0 0 0 0 0 0 0 0 
0 0 0 0 0 0 0 0 -0.0026217037749 
-0.0026113457905 -0.00034584304989 0.0034151502346 0.0077282612623 0.011645047098 0.014368326718 0.015372622331 0.014478648043 0.011879295695 
0.0081180698363 0.0040217738943 0.00059534554177 -0.0010964585061 0 0 -0.0038990858633 0.0010875812419 0.013246184543 
0.0298128374 0.04748879666 0.06298749577 0.073548548598 0.077347874102 0.073755585786 0.063424361218 0.048207160168 0.03090833703 
0.014889431258 0.003584219889 0 0 -0.0042318021699 0.0095254738964 0.037454684402 0.07379853344 0.1117968391 
0.14475187261 0.16705576143 0.17501081659 0.16733673634 0.14533970235 0.11274813178 0.075212302877 0.039494345121 0.012454779763 
0 0 -0.0039620263163 0.020709161094 0.067661221819 0.12758852906 0.18965685166 0.24318201033 0.27926582368 
0.29207534601 0.27959506158 0.24386447653 0.19074227008 0.12915724516 0.069833560848 0.023658252133 0 0 
-0.0033994091738 0.032435665768 0.098584120114 0.18216566556 0.26825538861 0.34220203007 0.39189728899 0.40948059848 0.39225192191 
0.34293094882 0.26939575424 0.18376952162 0.1007161187 0.035168330736 0 0 -0.0028107358624 0.042578472834 
0.12504659518 0.22865565178 0.3349863328 0.42603547867 0.48705755389 0.50859354229 0.48742126858 0.42677826755 0.3361330637 
0.23023153077 0.12706605913 0.04502861652 0 0 -0.0024003129637 0.049378960042 0.14273474377 0.25966911793 
0.37941029553 0.48172307718 0.55015709651 0.57426697648 0.55052110715 0.48246386663 0.38054495567 0.2612055572 0.1446552104 
0.051616667842 0 0 -0.0022937658802 0.051685088919 0.14880869947 0.27035430072 0.39472577373 0.50091289489 
0.57188542278 0.59687335065 0.57224644159 0.50164756207 0.39585018131 0.27187329284 0.15069784537 0.053865007364 0 
0 -0.0025284721196 0.049103428427 0.14228442605 0.25902454801 0.37857378926 0.48072440403 0.54904971343 0.5731189225 
0.54940567144 0.48145131637 0.37969395154 0.26055525344 0.14422262381 0.051402498298 0 0 -0.0030478404447 
0.042054818109 0.12416522222 0.22736243921 0.33327643574 0.42396728596 0.48474602328 0.50619027469 0.48509113877 0.42467679453 
0.33438459799 0.22891210235 0.12619998238 0.044604520789 0 0 -0.0036960127383 0.031735049831 0.097325546841 
0.18022625997 0.26560374535 0.33892455249 0.38818857491 0.40560819068 0.38850971908 0.33959086632 0.2666635021 0.18175415977 
0.099427647656 0.034552189025 0 0 -0.0042107186364 0.019985525299 0.066148138389 0.12503253301 0.18596917872 
0.23848042157 0.27385799662 0.28639894163 0.27413408291 0.23905933267 0.18690895107 0.12643402696 0.068177055237 0.022906249397 
0 0 -0.0042063299635 0.0090933214625 0.035940485001 0.070713906276 0.10695155778 0.13830823286 0.15949328483 
0.16702494924 0.15969846204 0.13874293612 0.10767143701 0.071823728374 0.0376319296 0.011719416784 0 0 
-0.00311634902 0.0015713344509 0.01221923828 0.026389623617 0.041322620219 0.054319427668 0.06313083033 0.066275315385 0.063240879956 
0.054554453735 0.041717978426 0.027016157014 0.013220195583 0.0032571892749 0 0 0 0 
0 0 0 0 0 0 0 0 0 
0 0 0 0 
