# vtk DataFile Version 5.1
vtk output
ASCII
DATASET STRUCTURED_POINTS
DIMENSIONS 16 16 1
SPACING 1 1 1
ORIGIN 0 0 0
POINT_DATA 256
SCALARS scalars double
LOOKUP_TABLE default
0 0 0 0 0 0 0 0 0 
0 0 0 0 0 0 0 0 -0.0026611017188 
-0.003527560553 -0.00278229771 -0.0008991867968 0.0015085836494 0.0038138603966 0.0054831718193 0.0061618129252 0.0057288181394 0.0043162629471 
0.0022911200827 0.00020224916897 -0.0013001599182 -0.0015597360589 0 0 -0.0048160402576 -0.0039664099598 0.0015893138122 
0.010204978715 0.019883926772 0.028619274305 0.03471224695 0.037033137828 0.035192429348 0.029600701051 0.021410232835 0.012346046581 
0.0044486017106 -0.00023833390812 0 0 -0.0066712153426 -0.0021352154829 0.011389787443 0.030518975814 0.051260301914 
0.069637180587 0.082294282873 0.087001879411 0.0829879426 0.071054000339 0.053460497221 0.033596217829 0.015475657336 0.003133963651 
0 0 -0.0082836390398 0.0010889872083 0.024369825116 0.056119338793 0.090014584799 0.11979071001 0.14017461946 
0.14766639042 0.14105231739 0.12158278431 0.092795047567 0.060001189658 0.029507597218 0.0076805727628 0 0 
-0.0096329156359 0.0048044917456 0.038012861666 0.082492161897 0.12959450218 0.17078059534 0.19887840572 0.20913553573 0.1999038447 
0.17287440432 0.13284256463 0.087024207312 0.044004659596 0.01248027581 0 0 -0.010663657625 0.008166049494 
0.049864622376 0.10518089413 0.16349639243 0.21434925709 0.24896943858 0.26155666427 0.25010095776 0.21666057704 0.16708347191 
0.11018779603 0.056486277426 0.016652920621 0 0 -0.011314376117 0.01048163131 0.057873444216 0.1204376764 
0.18623930136 0.24353516461 0.28249515213 0.2966282352 0.28368721704 0.24597165143 0.19002386629 0.12572548146 0.06487464963 
0.019468055621 0 0 -0.011537443824 0.011300029977 0.060681879823 0.12577291497 0.194178632 0.25371099287 
0.29417380461 0.30883891937 0.29537828395 0.25617457224 0.19800945829 0.13113300425 0.067791070772 0.020443313714 0 
0 -0.011310542365 0.010471805973 0.057822458633 0.12031907329 0.18603770851 0.24325212283 0.28214948954 0.29625159777 
0.28331658318 0.24564102648 0.18975729391 0.12553338399 0.06475493933 0.019411922022 0 0 -0.010638497619 
0.0081738999738 0.049789106946 0.10495902781 0.16309146278 0.21376370774 0.24824525202 0.26076487796 0.24932436513 0.21597451622 
0.16653961962 0.10980562928 0.056255662209 0.016548096121 0 0 -0.0095439605535 0.0048960744244 0.037975799903 
0.082203704603 0.12898351657 0.16984965858 0.1977029191 0.20784360341 0.19864406573 0.17178014583 0.13200156099 0.086462025819 
0.043688893824 0.012347725843 0 0 -0.0080445625566 0.0013955741214 0.024493967791 0.055835398127 0.08919475978 
0.11843826592 0.13841829661 0.14572388359 0.1391744273 0.11999171876 0.091631020153 0.059291342507 0.029169876642 0.0075709619799 
0 0 -0.0061104531914 -0.0013636696733 0.011900773938 0.030367345004 0.050228280039 0.067734131691 0.079738687228 
0.084157039198 0.080268926418 0.068825476031 0.051946161277 0.032820735169 0.015259997399 0.0031657892884 0 0 
-0.0035836167692 -0.0022585622873 0.0028892022369 0.010403430849 0.018630322922 0.025947043965 0.030993863943 0.032870616947 0.031267388096 
0.026510902336 0.019520888793 0.011683954533 0.0046673394333 0.00021423656212 0 0 0 0 
0 0 0 0 0 0 0 0 0 
0 0 0 0 
