# vtk DataFile Version 5.1
vtk output
ASCII
DATASET STRUCTURED_POINTS
DIMENSIONS 16 16 1
SPACING 1 1 1
ORIGIN 0 0 0
POINT_DATA 256
SCALARS scalars double
LOOKUP_TABLE default
0 0 0 0 0 0 0 0 0 
0 0 0 0 0 0 0 0 0.0034083563397 
0.0068956993718 0.010206141439 0.013157840983 0.015591926677 0.0173651319 0.018359127079 0.018493642378 0.017737063329 0.016112065715 
0.013696551025 0.010623071735 0.0070854728633 0.0033745234836 0 0 0.0081839283411 0.017910420764 0.028448583219 
0.038917100503 0.048334785138 0.055734960684 0.060299159019 0.061476260702 0.059063969279 0.053240133694 0.044541115832 0.033794065222 
0.022021850812 0.010354760169 0 0 0.01409405623 0.032171808656 0.052886201956 0.074291186095 0.094097667335 
0.11001061874 0.12007752045 0.12298457394 0.1182536112 0.10631317292 0.088436168568 0.066554177273 0.042978620373 0.02008102778 
0 0 0.02053983764 0.048028895683 0.080436279836 0.11456101567 0.14654649983 0.17249785206 0.18909663663 
0.19411183781 0.18673315289 0.1676875725 0.13912795557 0.10430467252 0.067060303302 0.031223066293 0 0 
0.026728808742 0.063405369091 0.10733350127 0.15405902056 0.19814901103 0.2340991246 0.25722130214 0.26436866343 0.2543991054 
0.22833378079 0.18919957513 0.1415630728 0.090798504048 0.042188508738 0 0 0.031835505652 0.076173613118 
0.12976149568 0.1870828981 0.24136532055 0.28573961752 0.31436303622 0.3233216541 0.31119569481 0.27924901743 0.23123724883 
0.17283356669 0.11070776209 0.051375333417 0 0 0.035147324586 0.084510073954 0.1444672591 0.20879409403 
0.26982308969 0.31977568613 0.35204438832 0.36221078588 0.34867267551 0.31285117668 0.25897927992 0.19346152545 0.12382972582 
0.057422046303 0 0 0.036182398142 0.08718700837 0.149268582 0.21595798858 0.27927735505 0.33113242527 
0.36465069873 0.37523938364 0.36123304048 0.32410626384 0.26825593466 0.20033886863 0.12818494808 0.059416502406 0 
0 0.034766193499 0.083762971541 0.14338466162 0.20742149512 0.26821956528 0.31801108303 0.35019564698 0.36035832806 
0.3468973571 0.31123141568 0.25758762606 0.19236059842 0.12306843913 0.057033271896 0 0 0.031058080816 
0.074648862494 0.12755030279 0.18427669133 0.23808354672 0.28212452946 0.31057262728 0.319522233 0.30755497107 0.27592925596 
0.22838757477 0.17058156417 0.10915209296 0.050581510738 0 0 0.025524986586 0.061041984556 0.10390154874 
0.14969695201 0.19303967038 0.22846262818 0.2513048477 0.25843485531 0.24871386605 0.22315379814 0.18475889227 0.13805955148 
0.088382616499 0.040957644377 0 0 0.018865353817 0.044735793846 0.075644483768 0.1084578531 0.13938350118 
0.16458185239 0.18077633423 0.1857611574 0.17873256734 0.16040401338 0.13289386576 0.099397663864 0.063686536414 0.029509304042 
0 0 0.01189304107 0.027829014319 0.046546878414 0.066194075867 0.084570903137 0.099460492738 0.10897121828 
0.11182760341 0.10756311657 0.096588567848 0.080128607847 0.060036710094 0.038520063895 0.017830600664 0 0 
0.0053971421697 0.012372665527 0.020322867463 0.028497469957 0.036036898955 0.042081623988 0.045898736458 0.046993028213 0.045181742185 
0.040621737667 0.033786255966 0.025397063436 0.016329238795 0.0075253650994 0 0 0 0 
0 0 0 0 0 0 0 0 0 
0 0 0 0 
