# vtk DataFile Version 5.1
vtk output
ASCII
DATASET STRUCTURED_POINTS
DIMENSIONS 16 16 1
SPACING 1 1 1
ORIGIN 0 0 0
POINT_DATA 256
SCALARS scalars double
LOOKUP_TABLE default
0 0 0 0 0 0 0 0 0 
0 0 0 0 0 0 0 0 -0.0006845388743 
0.0013422418265 0.0054610045655 0.010770208959 0.016244521275 0.020906208707 0.023970857353 0.02494074488 0.023647554779 0.020266089842 
0.015312674762 0.0096197642933 0.0042763719182 0.00056304568343 0 0 0.0013422418265 0.013100072306 0.032842520693 
0.056993804448 0.081427704135 0.10213887777 0.11585085473 0.12044685254 0.11519776197 0.10083354919 0.079490878962 0.054508501779 
0.030033626618 0.010483398776 0 0 0.0054610045655 0.032842520693 0.076965274064 0.13019638476 0.18370768036 
0.22892813734 0.25886870513 0.26903669286 0.25788480788 0.22693664663 0.18068269976 0.12615127065 0.07201629292 0.027306186763 
0 0 0.010770208959 0.056993804448 0.13019638476 0.21788365345 0.30561494012 0.37946184648 0.42823093361 
0.44485885768 0.42693727633 0.37680640515 0.30148558892 0.21216113016 0.1227904823 0.047875135224 0 0 
0.016244521275 0.081427704135 0.18370768036 0.30561494012 0.42699369935 0.52862208888 0.59542949378 0.61820723653 0.5938784015 
0.52539238911 0.42186119237 0.29829632404 0.17387190007 0.068665297567 0 0 0.020906208707 0.10213887777 
0.22892813734 0.37946184648 0.52862208888 0.65277395983 0.73393441932 0.76155363986 0.73220244467 0.6491203368 0.5227084117 
0.37084670493 0.21706315134 0.086287405582 0 0 0.023970857353 0.11585085473 0.25886870513 0.42823093361 
0.59542949378 0.73393441932 0.82406298162 0.85467274347 0.82223318889 0.73003781367 0.589041836 0.41879656305 0.24569058282 
0.09797651352 0 0 0.02494074488 0.12044685254 0.26903669286 0.44485885768 0.61820723653 0.76155363986 
0.85467274347 0.88627560726 0.85282269114 0.7575994997 0.6116939308 0.43519030447 0.25546481749 0.10194653449 0 
0 0.023647554779 0.11519776197 0.25788480788 0.42693727633 0.5938784015 0.73220244467 0.82223318889 0.85282269114 
0.82043702817 0.72837508452 0.58759885366 0.41765388959 0.24490602621 0.097579480874 0 0 0.020266089842 
0.10083354919 0.22693664663 0.37680640515 0.52539238911 0.6491203368 0.73003781367 0.7575994997 0.72837508452 0.64560782522 
0.51969597324 0.3684904891 0.21546282162 0.085483772967 0 0 0.015312674762 0.079490878962 0.18068269976 
0.30148558892 0.42186119237 0.5227084117 0.589041836 0.6116939308 0.58759885366 0.51969597324 0.41705650435 0.29460830392 
0.17141245703 0.067448048592 0 0 0.0096197642933 0.054508501779 0.12615127065 0.21216113016 0.29829632404 
0.37084670493 0.41879656305 0.43519030447 0.41765388959 0.3684904891 0.29460830392 0.20701438258 0.11945633144 0.046269152948 
0 0 0.0042763719182 0.030033626618 0.07201629292 0.1227904823 0.17387190007 0.21706315134 0.24569058282 
0.25546481749 0.24490602621 0.21546282162 0.17141245703 0.11945633144 0.067890936457 0.025433628359 0 0 
0.00056304568341 0.010483398776 0.027306186763 0.047875135224 0.068665297567 0.086287405582 0.09797651352 0.10194653449 0.097579480874 
0.085483772967 0.067448048592 0.046269152948 0.025433628359 0.0087244943204 0 0 0 0 
0 0 0 0 0 0 0 0 0 
0 0 0 0 
