# vtk DataFile Version 5.1
vtk output
ASCII
DATASET STRUCTURED_POINTS
DIMENSIONS 16 16 1
SPACING 1 1 1
ORIGIN 0 0 0
POINT_DATA 256
SCALARS scalars double
LOOKUP_TABLE default
0 0 0 0 0 0 0 0 0 
0 0 0 0 0 0 0 0 -0.0061654119047 
-0.0050633373689 -0.0018454484454 0.0025884149705 0.0073223371014 0.01149712634 0.014406984273 0.015589415477 0.014887521845 0.012472034226 
0.0088187667268 0.0046457514899 0.0008230121913 -0.0017221216981 0 0 -0.0057995668389 0.0071806210951 0.028562299165 
0.054615435636 0.081075237085 0.10373576166 0.1190569996 0.12468520809 0.1198023803 0.10524903809 0.083400702932 0.057817273302 
0.032720541512 0.012382745429 0 0 -0.0038383859699 0.027070098826 0.075348680746 0.13319238558 0.1914931399 
0.24119034039 0.2746257376 0.28669459527 0.27561583406 0.24320250862 0.19459078005 0.13746860116 0.080921782177 0.034072679909 
0 0 -0.00099287813088 0.051144879185 0.13105941256 0.22619232598 0.32178888763 0.40312615467 0.45774039679 
0.4773157401 0.45894643846 0.40558029639 0.32557549565 0.23143811001 0.13793209366 0.059848125085 0 0 
0.0020840996227 0.075498743302 0.18702428668 0.3193672763 0.45215344489 0.56502543101 0.6407374241 0.66777776483 0.64212129749 
0.56784517917 0.45651458175 0.32543177069 0.19501475067 0.085703582881 0 0 0.0048114685181 0.09629941885 
0.2346290051 0.39849825333 0.56277896292 0.70234821739 0.79591572178 0.82926694445 0.7974299955 0.70543734588 0.56756696554 
0.40517863124 0.24347474859 0.10767851524 0 0 0.0067245242246 0.11032884872 0.26659600525 0.45154630679 
0.63687747107 0.79428531948 0.89977982094 0.9373422937 0.90136895455 0.79753007198 0.64191469731 0.45859161949 0.27595810132 
0.12243246742 0 0 0.0075233824523 0.11544963523 0.27807480953 0.47047717019 0.66323856841 0.82693675752 
0.93663298161 0.97567459388 0.93823581211 0.83021112941 0.66832620889 0.47760215164 0.28755955249 0.12774064632 0 
0 0.0071085465066 0.11091955463 0.26737232472 0.452481086 0.63793818088 0.79543472461 0.9009768934 0.93854353559 
0.90253010063 0.79860798577 0.64286921296 0.45938712829 0.27656481402 0.12282743517 0 0 0.0055941063616 
0.097502701751 0.23620981239 0.40040151038 0.56493888535 0.70468937089 0.79835468604 0.83171498687 0.79979665931 0.70763448648 
0.56951263203 0.40680030772 0.24471179788 0.10848407813 0 0 0.0032955718881 0.077359375823 0.18946674067 
0.32230718741 0.45549059476 0.56864442035 0.64450968471 0.6715656762 0.64578411888 0.57124581973 0.45952599997 0.32794202553 
0.19693037784 0.086951894486 0 0 0.00069586359189 0.05373281113 0.13445114923 0.23027283423 0.32642265057 
0.40815563886 0.46298765115 0.48258823667 0.46404630996 0.41031503061 0.32976781611 0.23493315781 0.14060114537 0.061589948362 
0 0 -0.0015998814883 0.030484470826 0.079809389305 0.13855424432 0.19758658424 0.24781388781 0.28154606696 
0.29365494011 0.28235043612 0.24945347401 0.20012329916 0.14208101433 0.084448547105 0.036381444705 0 0 
-0.0029002389337 0.011556160828 0.034243512476 0.061435222306 0.088837125183 0.11219396266 0.12791427178 0.13360602366 0.1284362001 
0.11325731081 0.090480893444 0.063717731303 0.037241524314 0.015362342512 0 0 0 0 
0 0 0 0 0 0 0 0 0 
0 0 0 0 
