# vtk DataFile Version 5.1
vtk output
ASCII
DATASET STRUCTURED_POINTS
DIMENSIONS 16 16 1
SPACING 1 1 1
ORIGIN 0 0 0
POINT_DATA 256
SCALARS scalars double
LOOKUP_TABLE default
0 0 0 0 0 0 0 0 0 
0 0 0 0 0 0 0 0 -0.0066385081124 
-0.0057351815369 -0.002649283707 0.0017116724426 0.0064174462295 0.010592743099 0.013517618822 0.014720107342 0.014040169175 0.01165221913 
0.0080418523446 0.0039410019242 0.00023445576761 -0.0021395073723 0 0 -0.0066618486366 0.0058863030187 0.026904327073 
0.052666230787 0.078907820197 0.10142251121 0.11666954512 0.12229485068 0.11748070007 0.10306847585 0.081434915424 0.056140958647 
0.031408188816 0.011505328753 0 0 -0.0051587778158 0.025023960924 0.072629612819 0.1298762401 0.18768237337 
0.23701436621 0.27023734039 0.28226270281 0.27131573797 0.23920512347 0.19105268259 0.13452437348 0.078679605279 0.0326132246 
0 0 -0.0027992760747 0.048291325481 0.12718596156 0.22137189788 0.31615293692 0.39686733735 0.45110479521 
0.47058613327 0.45241955175 0.39954192079 0.32027769263 0.22708236431 0.13466129038 0.057748750732 0 0 
-0.00018215349352 0.071876276007 0.18204413677 0.31309622089 0.44474917149 0.55674175199 0.63191230883 0.65880692005 0.63342214467 
0.55981750239 0.44950462471 0.31970606841 0.19074857486 0.082986796983 0 0 0.0021679614447 0.092043764282 
0.22873397641 0.39102394542 0.55390397462 0.69237714188 0.78526363828 0.8184247146 0.78691686738 0.69574919828 0.55912918404 
0.39831199368 0.23838092542 0.10444917382 0 0 0.0038352617977 0.10565953736 0.26010155862 0.44328165001 
0.6270345107 0.78320201319 0.8879223186 0.92526467569 0.88965818907 0.78674591739 0.63253503828 0.45097302928 0.2703193994 
0.11886605927 0 0 0.004553003138 0.11064282564 0.2713797041 0.46194631256 0.65306798724 0.8154756401 
0.92436500755 0.96317571025 0.92611647429 0.81905323668 0.65862576415 0.46972794672 0.28173606325 0.124060202 0 
0 0.0042336806221 0.10627177633 0.26090510775 0.44424775653 0.6281291003 0.78438650145 0.88915457464 0.92650030928 
0.89085215927 0.78785431687 0.63351684859 0.45179168236 0.27094409509 0.11927291437 0 0 0.002980397986 
0.093291488011 0.23037075663 0.39299130006 0.55613289039 0.69478944017 0.78777373306 0.82094218703 0.78934982575 0.69800804723 
0.56113029674 0.39998088412 0.23965480977 0.1052791634 0 0 0.0010767120879 0.073807234555 0.18457454101 
0.31613602124 0.44819293851 0.56046986124 0.63579307146 0.66270047285 0.63718592908 0.56331251524 0.45260140281 0.32228957981 
0.19272178582 0.08427351424 0 0 -0.0010417495622 0.050980572589 0.1307030441 0.22559297898 0.3209348063 
0.40204664965 0.45649976397 0.47600189836 0.45765657875 0.40440575225 0.32458805752 0.23068001328 0.13741197534 0.059545508985 
0 0 -0.0028238976749 0.028578853061 0.077261497206 0.13542660818 0.19397072948 0.24383175142 0.27734637513 
0.28940505627 0.2782250979 0.24562240804 0.19673987919 0.13927388717 0.082317499688 0.034997766065 0 0 
-0.0036283981562 0.010454682583 0.03281538409 0.059732818719 0.086918255134 0.11012192226 0.12575735654 0.13143624644 0.12632736971 
0.11128284297 0.088711773966 0.062220925852 0.036078806238 0.014588973465 0 0 0 0 
0 0 0 0 0 0 0 0 0 
0 0 0 0 
