# vtk DataFile Version 5.1
vtk output
ASCII
DATASET STRUCTURED_POINTS
DIMENSIONS 16 16 1
SPACING 1 1 1
ORIGIN 0 0 0
POINT_DATA 256
SCALARS scalars double
LOOKUP_TABLE default
0 0 0 0 0 0 0 0 0 
0 0 0 0 0 0 0 0 -0.0071695686573 
-0.0065009327821 -0.0035786833661 0.00068356377415 0.0053417703521 0.0095045946718 0.012437841047 0.013659970092 0.013007777455 0.010659429934 
0.0071104142522 0.0031065899515 -0.00045280215098 -0.0026196526453 0 0 -0.0076468880211 0.0043577902434 0.024885522622 
0.050226737826 0.076131333928 0.098405185361 0.11351777513 0.11912203825 0.11440313894 0.10020082205 0.07888578139 0.054008990286 
0.029778529229 0.010445607586 0 0 -0.0066830152468 0.022558133184 0.069229076583 0.12559921419 0.18264664991 
0.23139756703 0.26426833717 0.27620518487 0.26544639328 0.23378985139 0.1863245647 0.13066674653 0.075816538433 0.030808106524 
0 0 -0.0048979575227 0.044810320733 0.12226706793 0.21505215722 0.30858386713 0.38831792969 0.44194536604 
0.46125582476 0.44338286235 0.39124136373 0.31309027261 0.22128693951 0.1304221374 0.055118031991 0 0 
-0.0028255848044 0.067424005423 0.17566155335 0.30479562328 0.43471267124 0.54532728061 0.61962991132 0.6462699946 0.62128200331 
0.54869212273 0.43991334403 0.31202110431 0.18517178327 0.079556403773 0 0 -0.00092301333575 0.086789319056 
0.22113717298 0.38107446736 0.54180836977 0.67856751329 0.77036755144 0.80320258077 0.77217775051 0.68225915563 0.54752737943 
0.38904874501 0.2316887501 0.10035330348 0 0 0.00045230866117 0.099879643309 0.25170675751 0.43224573158 
0.61357960703 0.76780914923 0.87129707043 0.9082652715 0.87319873372 0.77169103544 0.61960352594 0.44066688506 0.26289108149 
0.11433159937 0 0 0.0010731422878 0.10468682369 0.26271530712 0.45054110163 0.63914896118 0.79954047559 
0.90714624542 0.94556558274 0.90906567376 0.80346070385 0.64523792949 0.45906458452 0.27405624037 0.11937635471 0 
0 0.00086625047422 0.10051504689 0.25253950422 0.43324529458 0.61471021794 0.7690307731 0.87256642487 0.90953706788 
0.87442717105 0.77283144825 0.62061403292 0.44150991623 0.26353475591 0.11475102003 0 0 -7.8404179573e-05 
0.088084906497 0.2228340257 0.38311031344 0.54411064863 0.68105509452 0.77295259664 0.80579299418 0.77468026167 0.68458276451 
0.54958677243 0.3907673763 0.23300153218 0.10120913592 0 0 -0.0015154362034 0.069430857608 0.17828649747 
0.30794226182 0.43826983017 0.54917078781 0.6236248587 0.65027435092 0.62515154674 0.55228606501 0.4430998116 0.3146818271 
0.18720587274 0.080883819426 0 0 -0.0030657652481 0.047609220443 0.12591919963 0.21942380343 0.31352329572 
0.39365553478 0.44749546727 0.46682146482 0.448763201 0.39624029683 0.317524612 0.22499282182 0.13325929617 0.056973158182 
0 0 -0.0042430928189 0.026265697398 0.074045972818 0.13135188894 0.18914242473 0.23841942414 0.2715749189 
0.28353716052 0.27253765569 0.24038076069 0.19217413096 0.13556111096 0.079572523086 0.033273479831 0 0 
-0.0044665414695 0.0091367115023 0.031046032793 0.057558887565 0.084406358286 0.10735842482 0.12284572043 0.12849177119 0.12347006034 
0.10862956939 0.086369004159 0.06027910777 0.034608919176 0.013640874202 0 0 0 0 
0 0 0 0 0 0 0 0 0 
0 0 0 0 
