# vtk DataFile Version 5.1
vtk output
ASCII
DATASET STRUCTURED_POINTS
DIMENSIONS 16 16 1
SPACING 1 1 1
ORIGIN 0 0 0
POINT_DATA 256
SCALARS scalars double
LOOKUP_TABLE default
0 0 0 0 0 0 0 0 0 
0 0 0 0 0 0 0 0 -0.0052393609301 
-0.0037690077699 -0.00031973970524 0.0042279855097 0.0089900052657 0.0131418565 0.016007987908 0.017146120777 0.016406117927 0.013950964886 
0.010235697721 0.0059485545258 0.001927285066 -0.00092636233628 0 0 -0.0041506275955 0.0095579548532 0.031488343303 
0.057925850452 0.084630750185 0.10742417414 0.12278933794 0.12838767311 0.12340577738 0.10867748678 0.086561524245 0.060594022896 
0.034971259 0.01394577024 0 0 -0.0013508586961 0.030718834177 0.07995108186 0.13854660595 0.19740468913 
0.24747125895 0.28109258227 0.2931659531 0.28190972725 0.24913387617 0.19996920473 0.14209659384 0.084594264241 0.036578866241 
0 0 0.0023776262618 0.056138946668 0.13745111401 0.2337493704 0.33026277166 0.41224720594 0.46721814193 
0.48684396661 0.46821145441 0.41427033576 0.33338904085 0.23808913507 0.14315084825 0.063377009323 0 0 
0.0062864250025 0.081763074062 0.19511267907 0.32902335962 0.46308010498 0.57687528319 0.65311559182 0.6802548783 0.65425321784 
0.57919499562 0.46667208588 0.33402593571 0.20171566977 0.090211667431 0 0 0.009694116595 0.10360384003 
0.24410989545 0.40988176475 0.57572939077 0.71645437523 0.81069574322 0.84418815354 0.81193859467 0.7189913597 0.57966538863 
0.4153801355 0.25140050944 0.11299545157 0 0 0.012048884758 0.11830902885 0.27698309265 0.46405619668 
0.65115001693 0.80986785589 0.91613328872 0.95386574608 0.91743599386 0.81252921184 0.65528505556 0.4698458133 0.28468561722 
0.12827879308 0 0 0.01299174404 0.12365040723 0.28875884143 0.48335791741 0.67794845601 0.84300960592 
0.95351055866 0.99273276478 0.95482339798 0.84569293766 0.68212107165 0.48920730036 0.29655413774 0.13376334008 0 
0 0.012401793262 0.11885296686 0.27769989797 0.46492199534 0.65213552959 0.81093879336 0.91725115854 0.95498922296 
0.91852277431 0.81353809438 0.65617792094 0.47058923895 0.28525202321 0.12864721563 0 0 0.010412693602 
0.10471108842 0.24556893319 0.4116444587 0.57773670558 0.71863684857 0.81297494902 0.84647952223 0.81415537909 0.72104911817 
0.58148620917 0.41689596776 0.25255536309 0.11374673287 0 0 0.0073968765898 0.083472971797 0.19736522599 
0.33174564996 0.46618270584 0.58025194048 0.65664498646 0.68380510649 0.65768849066 0.58238329415 0.46949225737 0.33637298379 
0.20350373954 0.091375317249 0 0 0.0039213989701 0.058512077395 0.14057489407 0.23752627401 0.33457300189 
0.41694572603 0.47213605788 0.49179516699 0.47300329527 0.41871596686 0.33731860953 0.24135753104 0.14564089261 0.064999074611 
0 0 0.00068724331188 0.033839174554 0.084050265359 0.14350554558 0.20307582238 0.25366906879 0.28759370668 
0.29971918399 0.28825305897 0.25501423793 0.20516008553 0.1464093301 0.087880457891 0.038724749053 0 0 
-0.0015260875751 0.013535909602 0.036690742579 0.064224257521 0.091858812453 0.1153553899 0.13113559406 0.13681541465 0.13156373872 
0.11622856891 0.09321102733 0.066106987514 0.039173310344 0.016705459902 0 0 0 0 
0 0 0 0 0 0 0 0 0 
0 0 0 0 
