# vtk DataFile Version 5.1
vtk output
ASCII
DATASET STRUCTURED_POINTS
DIMENSIONS 16 16 1
SPACING 1 1 1
ORIGIN 0 0 0
POINT_DATA 256
SCALARS scalars double
LOOKUP_TABLE default
0 0 0 0 0 0 0 0 0 
0 0 0 0 0 0 0 0 -0.0030124176726 
-0.00055888560892 0.0035711630964 0.0085265001943 0.013480030779 0.017669741208 0.020473176596 0.021483486065 0.020564623442 0.01787215258 
0.013835077988 0.0091032012114 0.0044736222127 0.00082001819195 0 0 -0.00060022419337 0.01464226543 0.037616401007 
0.064664774892 0.09164426166 0.11447773799 0.12973343776 0.13512892656 0.12987278691 0.11478655753 0.092186762564 0.065546640475 
0.038993871581 0.016728451074 0 0 0.0034620718152 0.037538547406 0.088095863094 0.14742881582 0.2065796491 
0.25664053246 0.29007839819 0.3018696023 0.29026296983 0.25705015646 0.20730070519 0.14860352037 0.089933884753 0.040322916635 
0 0 0.0083340078973 0.064487509936 0.14732363318 0.24441496295 0.3411837053 0.4230787349 0.47777314173 
0.49703794575 0.47799889211 0.4235807021 0.3420699971 0.24586478315 0.14960406943 0.067965950813 0 0 
0.013202220744 0.091363863891 0.20636315993 0.34106962862 0.47530997906 0.58891378162 0.66477990569 0.69148669281 0.66504090396 
0.58949534303 0.47634033937 0.34276325928 0.20904432558 0.095489137525 0 0 0.017318633201 0.1141081558 
0.25632694117 0.42286409672 0.58881212247 0.72924640078 0.82302644568 0.85602920294 0.82331450936 0.72988948583 0.58995502001 
0.42475084848 0.25933093932 0.11876465418 0 0 0.020072600702 0.12930342811 0.28969868239 0.4774896274 
0.66460821091 0.82295605289 0.92869608122 0.96590179859 0.92900082673 0.82363731244 0.66582164228 0.47949892549 0.2929103507 
0.13430642549 0 0 0.021065115225 0.13467701447 0.30146570203 0.49672899225 0.69128888181 0.85593234687 
0.96587518924 1.0045574312 0.96618457148 0.85662443815 0.69252291325 0.49877525423 0.3047420454 0.13979113637 0 
0 0.020162809146 0.12944078848 0.28988045419 0.47771174998 0.6648648086 0.82323908236 0.92899537539 0.96620558341 
0.92929660574 0.82391289514 0.66606605781 0.47970301623 0.29306697156 0.13441035232 0 0 0.017518343751 
0.1144125902 0.25673032437 0.42335790257 0.58938371392 0.72987802469 0.82369525886 0.85670850078 0.82397587021 0.73050526331 
0.59050053741 0.42520577324 0.2596796323 0.1189957505 0 0 0.013552663631 0.091898740962 0.20707316028 
0.34194123731 0.47632219588 0.59003566066 0.66597040995 0.69269712009 0.66621920242 0.59059111676 0.47730920989 0.34356947357 
0.20966110355 0.095897236352 0 0 0.0089035926001 0.065357214505 0.14848019062 0.24584014008 0.34284640215 
0.42492928239 0.47974271978 0.49904323299 0.4799503745 0.42539225903 0.34366719277 0.24718963804 0.1506150705 0.068633911364 
0 0 0.0043543168398 0.038897640604 0.089905264851 0.14966918096 0.2092094824 0.25958368873 0.29322285498 
0.30507645212 0.2933821372 0.25993835869 0.20983697173 0.15069802297 0.091527135856 0.041375266259 0 0 
0.00076536706674 0.016702180311 0.040357069884 0.068079415028 0.095685685913 0.11903334528 0.13462409542 0.14012660124 0.13472974971 
0.11926829768 0.096100622626 0.068758581943 0.041426962285 0.018339636647 0 0 0 0 
0 0 0 0 0 0 0 0 0 
0 0 0 0 
