# vtk DataFile Version 5.1
vtk output
ASCII
DATASET STRUCTURED_POINTS
DIMENSIONS 16 16 1
SPACING 1 1 1
ORIGIN 0 0 0
POINT_DATA 256
SCALARS scalars double
LOOKUP_TABLE default
0 0 0 0 0 0 0 0 0 
0 0 0 0 0 0 0 0 -0.0081627068283 
-0.0079752860327 -0.0054156860992 -0.0013997588347 0.0031110242304 0.0072027608266 0.010120581635 0.011368927974 0.010780000996 0.0085375706825 
0.0051516201623 0.001387886703 -0.0018351428954 -0.0035599822229 0 0 -0.0095506520958 0.0012253445161 0.020538129044 
0.044752041367 0.069692101568 0.091235376532 0.10591077122 0.11141111629 0.10693634753 0.093313677083 0.072875566812 0.049113878483 
0.026163219158 0.0081927418639 0 0 -0.0096849200658 0.017335192856 0.061607681374 0.11559044669 0.17048084028 
0.21752425174 0.24932367383 0.26095102787 0.25069014332 0.22029739959 0.17473972706 0.12144936744 0.069208068726 0.02682834574 
0 0 -0.0090779574947 0.037295572898 0.11100092254 0.19994121409 0.28992575164 0.36680688561 0.41861512364 
0.43736904846 0.42028481054 0.37020093915 0.29515356953 0.20716640955 0.12043889268 0.049206426797 0 0 
-0.0081268554685 0.057702183888 0.16085718441 0.28470429258 0.40969333484 0.51631402066 0.58805032804 0.6138847277 0.58997167569 
0.52022591079 0.41573616803 0.29309367188 0.17188985255 0.071763914601 0 0 -0.0071476126863 0.075237183792 
0.20338476334 0.35682024835 0.51146044985 0.64326087828 0.73186176564 0.76367887674 0.73396920233 0.64755756412 0.51811402181 
0.36609271603 0.2156468129 0.090990574819 0 0 -0.006376108137 0.08712419887 0.23200944059 0.40523867717 
0.57970238192 0.72832977235 0.82819592866 0.86400381911 0.83041164292 0.7328517599 0.58671725753 0.41504100821 0.24502210911 
0.10393103604 0 0 -0.0059574473742 0.091523529664 0.24235352031 0.42258851708 0.60405510163 0.75861915099 
0.86245466542 0.8996630556 0.86469232662 0.7631884426 0.61115005083 0.43251641301 0.25555756794 0.10861921725 0 
0 -0.0059353012396 0.087799503139 0.23289213698 0.40629498712 0.58089350316 0.72961317346 0.82952646928 0.86533488543 
0.83169639368 0.73404448135 0.5877747789 0.41592414317 0.24569714006 0.10437128925 0 0 -0.0062471857383 
0.076615393907 0.20518455213 0.35897236641 0.51388595906 0.64587356456 0.73457019107 0.76638855372 0.73658508351 0.64998679639 
0.52026880837 0.36789318104 0.21702392348 0.091889320071 0 0 -0.0067273587479 0.059840534081 0.16364458931 
0.28803258387 0.41344094345 0.5203489345 0.59223259584 0.61806947406 0.59401287776 0.52398069747 0.41906922568 0.29588147421 
0.17402482357 0.073159117423 0 0 -0.0071148957521 0.040285506297 0.11488612827 0.20456948028 0.29512978556 
0.37240627571 0.42441833322 0.44317701234 0.42589622079 0.3754184863 0.29979015853 0.21105063885 0.12341987077 0.051159268317 
0 0 -0.0070594524514 0.021310709264 0.066745803914 0.12168914146 0.17732492534 0.22488278778 0.25694987882 
0.26858635194 0.25807176658 0.22716736176 0.18085363661 0.12658304196 0.073161669926 0.029430116052 0 0 
-0.0061084128507 0.0063772755432 0.027135226318 0.052540622476 0.078411407588 0.10060385214 0.11562226292 0.12114012971 0.11634949529 
0.10208368978 0.080694093352 0.055699697384 0.031263593224 0.011578548676 0 0 0 0 
0 0 0 0 0 0 0 0 0 
0 0 0 0 
