# vtk DataFile Version 5.1
vtk output
ASCII
DATASET STRUCTURED_POINTS
DIMENSIONS 16 16 1
SPACING 1 1 1
ORIGIN 0 0 0
POINT_DATA 256
SCALARS scalars double
LOOKUP_TABLE default
0 0 0 0 0 0 0 0 0 
0 0 0 0 0 0 0 0 -0.0047958926651 
-0.0031486984683 0.00041404733291 0.0050205602458 0.009800616507 0.013945056241 0.01679178697 0.017907696958 0.017145977789 0.014666595844 
0.010915822155 0.0065690998827 0.0024501469592 -0.00055069817796 0 0 -0.0033864838025 0.010634232527 0.032780078236 
0.059349166658 0.086120068197 0.10893333498 0.12428902633 0.12985996268 0.12483683398 0.11004964705 0.087846059876 0.061745891481 
0.035927061205 0.014626055718 0 0 -0.00022696817062 0.032303655541 0.081867128137 0.1406816696 0.19966817517 
0.24979434148 0.28342486073 0.2954693088 0.28415034824 0.25127362741 0.20195761876 0.14386473014 0.086051557521 0.037613917516 
0 0 0.0038722152915 0.058245026891 0.14000686663 0.23661580889 0.33332534819 0.4154144673 0.47041754797 
0.49001532437 0.47129873358 0.41721285457 0.33611310681 0.240501177 0.14513289924 0.064785134502 0 0 
0.008124972521 0.084350830798 0.19825880203 0.33256523718 0.46688202506 0.58082538272 0.65712083089 0.6842341999 0.65812939737 
0.58288591445 0.47008225062 0.3370389967 0.20418847446 0.091970035692 0 0 0.011810410035 0.10657923963 
0.24773038326 0.41396623246 0.58012561894 0.72103442704 0.81535020072 0.84881909284 0.81645155685 0.72328680441 0.58363019612 
0.41887963928 0.25427129471 0.1150387501 0 0 0.014342582585 0.12153107147 0.28090470634 0.46848473992 
0.65592307166 0.81484752213 0.92119990396 0.95891074415 0.9223539843 0.81720958767 0.65960350954 0.47365605 0.28781128633 
0.13050523502 0 0 0.015339514086 0.12694650893 0.29276996556 0.4878881414 0.68283260154 0.84810709356 
0.95869891434 0.99790042805 0.95986184493 0.85048835385 0.68654587952 0.49311175124 0.29975791527 0.13604668405 0 
0 0.014672219809 0.12203949006 0.28157557143 0.46929635459 0.65684848262 0.81585476133 0.92225270556 0.95996988687 
0.92337916137 0.81816151822 0.66044593623 0.47435733191 0.28834547101 0.1308527112 0 0 0.012482429117 
0.107615573 0.2490979318 0.4156213146 0.58201388387 0.72309101013 0.81750101617 0.85098362147 0.81854687491 0.72523216351 
0.58535131136 0.42031199469 0.25536219163 0.11574837702 0 0 0.0091653271173 0.085954361157 0.20037476226 
0.33512768538 0.46980865826 0.58401673515 0.66046180064 0.68759854556 0.66138661941 0.58590914796 0.47275553701 0.33926258219 
0.20588156732 0.093071610007 0 0 0.005321386262 0.06047545602 0.14294879665 0.24018165989 0.33740508146 
0.41987189779 0.47509148599 0.49472637608 0.47586040902 0.42144440192 0.33985111862 0.2436074552 0.1474973501 0.066324629603 
0 0 0.0016895219108 0.035242172009 0.085737350287 0.1453782861 0.20505633849 0.25569926359 0.2896317658 
0.30173389363 0.29021668845 0.25689489231 0.20691451313 0.14797715563 0.089180728853 0.039655585705 0 0 
-0.00091607240577 0.014384810983 0.037701347286 0.065331689919 0.093013664802 0.11652380393 0.13229678236 0.13795720988 0.1326768768 
0.11730052887 0.094220315508 0.067018757491 0.039937180684 0.01725637246 0 0 0 0 
0 0 0 0 0 0 0 0 0 
0 0 0 0 
