# vtk DataFile Version 5.1
vtk output
ASCII
DATASET STRUCTURED_POINTS
DIMENSIONS 16 16 1
SPACING 1 1 1
ORIGIN 0 0 0
POINT_DATA 256
SCALARS scalars double
LOOKUP_TABLE default
0 0 0 0 0 0 0 0 0 
0 0 0 0 0 0 0 0 -0.0049178789047 
-0.003320348202 0.00020956715625 0.0047980090939 0.0095712961321 0.013716407923 0.01656780849 0.017689993037 0.01693521743 0.014464112151 
0.010725069138 0.0063966798845 0.0023061333153 -0.00065341120887 0 0 -0.0035941587479 0.010341452382 0.032428524664 
0.058961830829 0.085715062304 0.10852351372 0.12388261481 0.12946198281 0.12445105336 0.10968071817 0.08750148921 0.061437481446 
0.03567149531 0.014444328575 0 0 -0.00052915202721 0.031878700085 0.081355421574 0.14011432439 0.19907007673 
0.24918397685 0.28281519643 0.29486952886 0.28356816924 0.25071783552 0.20144044044 0.14340365851 0.085670302586 0.037342212907 
0 0 0.003473845378 0.057686702258 0.13933417066 0.23586759195 0.33253289989 0.41460169013 0.46960212222 
0.48921072278 0.47051682462 0.4164667477 0.33541985672 0.23988398183 0.14462249555 0.06442019409 0 0 
0.0076382136121 0.083670745467 0.19743967904 0.33165277216 0.46591309939 0.57982864029 0.65611813714 0.68324290031 0.65716515094 
0.58196578093 0.46922767199 0.33627833944 0.20355888592 0.091518504961 0 0 0.011252917247 0.10580224502 
0.24679514531 0.41292380095 0.57901718222 0.71989226194 0.81419939011 0.84767998175 0.81534276036 0.72222847522 0.58264722085 
0.41800446476 0.25354618733 0.11451745373 0 0 0.013740484803 0.1206933683 0.27989709024 0.46736157964 
0.65472816505 0.81361531339 0.91995738281 0.95768003493 0.92115546575 0.81606527449 0.65854038739 0.47270909197 0.28702598933 
0.12993969242 0 0 0.014724599105 0.1260918539 0.29174260824 0.4867433587 0.68161482575 0.84685124059 
0.95743235817 0.99664564246 0.95863956441 0.84932099531 0.68546092696 0.49214484296 0.29895548592 0.13546819506 0 
0 0.014078195526 0.12121417493 0.28058405813 0.46819228211 0.65567484863 0.81464518821 0.92103337236 0.95876213548 
0.92220262168 0.8170374902 0.65940072778 0.47342528688 0.28757152922 0.1302945155 0 0 0.011940888171 
0.10686301218 0.24819438917 0.41461637109 0.58094713762 0.7219931263 0.81639550717 0.84988933045 0.81748098552 0.72421345891 
0.58440336811 0.41946602721 0.2546593586 0.11524151375 0 0 0.0087020868651 0.085310183493 0.19960203803 
0.33426987108 0.4689002678 0.58308407167 0.65952450117 0.68667186223 0.66048423194 0.5850462128 0.47195164329 0.33854430722 
0.20528440256 0.092641149093 0 0 0.0049538370542 0.059963941981 0.1423361962 0.23950373507 0.33668997825 
0.41914053395 0.47435881048 0.49400337589 0.47515663565 0.42077071467 0.33922230915 0.2430444328 0.14702862384 0.065986905925 
0 0 0.0014255093524 0.034874724431 0.085298702394 0.14489544535 0.2045502427 0.25518487887 0.28911904152 
0.30122942051 0.28972583048 0.25642410453 0.20647352951 0.14758073853 0.088849707134 0.039416956142 0 0 
-0.0010774279816 0.01416093794 0.037435878462 0.06504219285 0.092713431517 0.11622177092 0.1319981729 0.13766474578 0.13239236392 
0.11702658176 0.093961966409 0.066784695127 0.039740378923 0.017113885549 0 0 0 0 
0 0 0 0 0 0 0 0 0 
0 0 0 0 
