# vtk DataFile Version 5.1
vtk output
ASCII
DATASET STRUCTURED_POINTS
DIMENSIONS 16 16 1
SPACING 1 1 1
ORIGIN 0 0 0
POINT_DATA 256
SCALARS scalars double
LOOKUP_TABLE default
0 0 0 0 0 0 0 0 0 
0 0 0 0 0 0 0 0 -0.0046593593085 
-0.0029551357359 0.00064647251885 0.0052755565045 0.010065284764 0.014210411002 0.017052423543 0.018160783789 0.017389804042 0.014898949961 
0.011132501802 0.0067628537242 0.002610333133 -0.00043746764644 0 0 -0.0031568675484 0.010959360511 0.033171892288 
0.059782074659 0.086573495725 0.10939228859 0.12474356058 0.13030375321 0.1252651482 0.11045707561 0.088224407308 0.062082618054 
0.036204630493 0.014822495589 0 0 0.00010323261538 0.032768919895 0.082427665296 0.14130269494 0.20032160539 
0.25045921263 0.28408653225 0.29611764268 0.28477717996 0.25186994111 0.20251088274 0.14435683388 0.086457727719 0.037902901531 
0 0 0.0043031510279 0.058849026008 0.14073329672 0.23742115425 0.33417454401 0.41628102575 0.47128244461 
0.49086479428 0.47212129241 0.41799597853 0.33684005589 0.24114842024 0.14566850874 0.065168376173 0 0 
0.0086472428697 0.085079484703 0.19913335249 0.33353448858 0.46790491718 0.58187075516 0.65816597561 0.68526230103 0.65912615717 
0.58383580336 0.47096487425 0.33782603742 0.20484154589 0.092439604899 0 0 0.012404800105 0.10740553702 
0.24872023951 0.41506249321 0.58128269071 0.7222176963 0.81653428845 0.84998499679 0.81758296052 0.72436598533 0.58463402509 
0.41977611825 0.25501694085 0.11557691515 0 0 0.014981534716 0.12241706322 0.28196442489 0.46965739158 
0.65716039874 0.81611296824 0.92246665583 0.9601586703 0.92356573342 0.81836627247 0.66068046271 0.47461908994 0.28861377691 
0.13108598443 0 0 0.015989989813 0.12784710668 0.29384592306 0.48907775026 0.68408707467 0.8493896182 
0.95998260199 0.99916517033 0.96109033137 0.85166167251 0.68763918275 0.49409041817 0.3005744862 0.13663859664 0 
0 0.015299448225 0.12290741276 0.28261170942 0.47044094616 0.65805442471 0.81708670917 0.92348506521 0.96118372154 
0.92455827057 0.81928810885 0.66149636453 0.47529834741 0.2891312434 0.13142268672 0 0 0.013053924869 
0.10840663536 0.25004188171 0.41666304537 0.58311006939 0.72420939127 0.8186185608 0.85208361032 0.81961518281 0.72625315334 
0.58630381524 0.42116581506 0.25607542114 0.11626562854 0 0 0.0096545204424 0.08663224537 0.2011833763 
0.33601887945 0.47074467938 0.5849697894 0.66141247538 0.68853318641 0.66229394255 0.58677649808 0.47356525351 0.33998890346 
0.2064883938 0.09351127955 0 0 0.0057102456206 0.061015160349 0.1435921765 0.24088925604 0.33814609284 
0.42062403486 0.47583970822 0.49546064872 0.47657276144 0.42212567698 0.34048784748 0.24417927062 0.1479752702 0.066670426929 
0 0 0.0019696524787 0.035631472062 0.086200646878 0.14588595185 0.20558544278 0.25623365483 0.29016113832 
0.30225199678 0.29071894123 0.25737574727 0.20736495019 0.14838267467 0.089520158199 0.039900952727 0 0 
-0.00074425679981 0.014623264116 0.037983872895 0.065639175132 0.093331546745 0.11684226474 0.13261014008 0.13826265744 0.13297278123 
0.11758455359 0.094487654392 0.067260766493 0.040140670095 0.017403792756 0 0 0 0 
0 0 0 0 0 0 0 0 0 
0 0 0 0 
