# vtk DataFile Version 5.1
vtk output
ASCII
DATASET STRUCTURED_POINTS
DIMENSIONS 16 16 1
SPACING 1 1 1
ORIGIN 0 0 0
POINT_DATA 256
SCALARS scalars double
LOOKUP_TABLE default
0 0 0 0 0 0 0 0 0 
0 0 0 0 0 0 0 0 -0.0075556514019 
-0.0070666717659 -0.0042754808301 -9.8172045749e-05 0.0045129719049 0.0086565329175 0.011589230343 0.012823393885 0.012193800974 0.0098810445142 
0.0063869484055 0.0024661807637 -0.0009731713451 -0.0029777743779 0 0 -0.0083761852021 0.003188037144 0.023295670498 
0.048258308154 0.073846508173 0.095885430652 0.1108606043 0.11643577982 0.11180022365 0.097790467695 0.076767060951 0.052265087629 
0.02847251337 0.0096172856628 0 0 -0.0078234971893 0.020634825057 0.066487305006 0.12206041891 0.17839861259 
0.2265944866 0.25912105978 0.27096280882 0.26037200293 0.22913413147 0.18230137672 0.12743436389 0.073467175197 0.029366758832 
0 0 -0.0064782498367 0.042064949906 0.11824942894 0.20975443682 0.3021192685 0.3809228491 0.43396190078 
0.45309751488 0.43548919505 0.38402831615 0.30690477447 0.21637250926 0.12690117549 0.052993607887 0 0 
-0.0048238242969 0.063889052731 0.17040870537 0.29778525057 0.42608109857 0.53539126605 0.60886145047 0.63524607197 0.61061765007 
0.53896764724 0.43160748605 0.30546098985 0.18050806708 0.076768279496 0 0 -0.0032650785722 0.082600647224 
0.2148568935 0.37263479916 0.53136414109 0.66650269015 0.75726353053 0.78977433892 0.75918863366 0.67042824786 0.53744451538 
0.38111114417 0.22607014179 0.097011789859 0 0 -0.0021143765908 0.095261825177 0.24474965243 0.42286218501 
0.60193627164 0.75433443133 0.85664508669 0.89324289384 0.85866813536 0.75846374706 0.60834329391 0.43181739575 0.25664108688 
0.11062473759 0 0 -0.0015684723394 0.099924200688 0.25552796056 0.44083462319 0.62709372442 0.78558012213 
0.89196013362 0.92999262418 0.89400255106 0.78975121737 0.63357156046 0.44990108192 0.2675893575 0.11554439385 0 
0 -0.0016896136635 0.095913336254 0.24560262824 0.42388482315 0.60309160097 0.75558140873 0.85793965595 0.89453918924 
0.85991988499 0.75962581346 0.60937323792 0.43267697414 0.25729767253 0.11105272201 0 0 -0.0023980121 
0.08392955511 0.21659540273 0.37471790626 0.53371676164 0.66904164135 0.75989946782 0.79241410685 0.76173813109 0.67279561932 
0.53954336476 0.38286354002 0.22740939956 0.097885249587 0 0 -0.0034777980834 0.065948844108 0.17309930723 
0.30100567217 0.42971606428 0.53931344007 0.61293379365 0.63932523612 0.61455848457 0.54262833495 0.43485462966 0.30817413641 
0.18258363734 0.078123499986 0 0 -0.0045936529217 0.044940561802 0.12199556796 0.21423019897 0.30716680706 
0.38636820013 0.43961685837 0.45876398545 0.44096581169 0.38911817875 0.31142290563 0.22015192476 0.12979736845 0.054888718082 
0 0 -0.0053095418764 0.024449621609 0.071433402024 0.12795325172 0.18503670602 0.2337552103 0.26656059537 
0.27842166599 0.26758484501 0.23584149565 0.18826057217 0.13242727566 0.077304040027 0.031887736005 0 0 
-0.0050917881805 0.008115586777 0.029631130534 0.055774918841 0.082303076163 0.10501048201 0.12034910522 0.12595702077 0.12101321731 
0.10636230667 0.084389479638 0.05866490711 0.033412894214 0.012889806573 0 0 0 0 
0 0 0 0 0 0 0 0 0 
0 0 0 0 
