# vtk DataFile Version 5.1
vtk output
ASCII
DATASET STRUCTURED_POINTS
DIMENSIONS 16 16 1
SPACING 1 1 1
ORIGIN 0 0 0
POINT_DATA 256
SCALARS scalars double
LOOKUP_TABLE default
0 0 0 0 0 0 0 0 0 
0 0 0 0 0 0 0 0 -0.0039921776411 
-0.0019885640421 0.0018273959373 0.0065888395843 0.011441214736 0.015596120821 0.018411870143 0.019470976575 0.018634624849 0.016062156499 
0.012191524905 0.0076848206924 0.0033514201443 7.1307825157e-05 0 0 -0.00208233827 0.012507432628 0.035056311487 
0.061873047446 0.088761704177 0.11159528168 0.12690534689 0.13238873927 0.12724842028 0.1123134346 0.089918585668 0.063562794989 
0.037400773841 0.015650285462 0 0 0.0015767737207 0.034872969394 0.084972724457 0.14411327613 0.20325219267 
0.25340185188 0.28696963793 0.29889740082 0.28742413044 0.25435389724 0.2047873668 0.14635775396 0.088088163568 0.03904471449 
0 0 0.0061427078314 0.061451272589 0.14385857533 0.24085231043 0.33773480097 0.41984217012 0.47476250676 
0.49421675922 0.4753159307 0.4210026242 0.339609181 0.24359926254 0.14768387421 0.066597171814 0 0 
0.010793338741 0.08808965412 0.20272362796 0.33745254321 0.47194908672 0.58589835961 0.66208971213 0.68903634218 0.66272546104 
0.58723302741 0.47410931108 0.34062827027 0.20716613184 0.094106146206 0 0 0.014773765271 0.11070492709 
0.25263169317 0.41930754663 0.58564239706 0.72654080992 0.82073244501 0.85401658408 0.82142949934 0.7280058441 0.58801832191 
0.42281084276 0.25755373566 0.11741270627 0 0 0.017470935378 0.12586577357 0.28603315379 0.47405272195 
0.66165461606 0.82055200242 0.92676434904 0.96427909915 0.92749759852 0.82209444898 0.66415983883 0.47775493522 0.29125116079 
0.13300832368 0 0 0.018486458365 0.13129363844 0.29789813068 0.49343982959 0.68853154672 0.85376503731 
0.96420737424 1.0032092211 0.96494869622 0.85532519073 0.69106750949 0.49719166573 0.30319404333 0.13855717204 0 
0 0.017688061951 0.12619980325 0.2864750072 0.47458990699 0.66227080813 0.82122679914 0.92747356885 0.96499577073 
0.92819352046 0.82274200393 0.66473367955 0.4782332336 0.2916163012 0.13324716182 0 0 0.015228064727 
0.1114040584 0.25355691491 0.42043326006 0.58693495888 0.72795770579 0.82222277755 0.85552321869 0.82289255598 0.72936677241 
0.58922364847 0.42381485089 0.25831978762 0.11791352082 0 0 0.011524966128 0.089215768551 0.20421470651 
0.33926900672 0.4740383519 0.58819254596 0.66450604763 0.69148086312 0.66509930383 0.58943979566 0.476061749 0.34225278368 
0.2084045372 0.094915267635 0 0 0.0072121955249 0.063096205914 0.14603713529 0.24351081792 0.34080044488 
0.42321730982 0.47832449629 0.4978240128 0.47881866518 0.42425544312 0.34248229854 0.24598565025 0.14950097464 0.067784106615 
0 0 0.0030663735354 0.037156466876 0.087994732876 0.14780925353 0.20753022468 0.25812974961 0.29197356578 
0.30397197583 0.29235057758 0.25892120661 0.20881095879 0.14969079093 0.090622493002 0.040701979916 0 0 
-6.2506891719e-05 0.015572895378 0.039101158076 0.06683514858 0.094537605455 0.11801407375 0.13372624287 0.13931867468 0.13397273665 
0.11853119584 0.095373671426 0.068062553151 0.040815862214 0.017893178366 0 0 0 0 
0 0 0 0 0 0 0 0 0 
0 0 0 0 
